 Gaussian 16, Revision A.03,
 Gaussian 16:  ES64L-G16RevA.03 25-Dec-2016

 --------------------------------------------------------
 #p PBE1PBE/Def2SVP td=(nstates=5) density=(transition=1)
 --------------------------------------------------------

 --------------------------------
 TDDFT excited states in gaussian
 --------------------------------
 Symbolic Z-matrix:
 Charge =  0 Multiplicity = 1

                         Standard orientation:
 ---------------------------------------------------------------------
 Center     Atomic      Atomic             Coordinates (Angstroms)
 Number     Number       Type             X           Y           Z
 ---------------------------------------------------------------------
      1         12           0       11.670324   -0.010391    0.101771
      2          6           0        9.286444   -1.557042   -1.984748
      3          6           0       10.735324    2.971686   -1.254751
      4          6           0       13.392639    1.536372    2.616250
      5          6           0       12.039413   -3.188765    1.670761
      6          7           0       10.048751    0.651833   -1.372603
      7          6           0        9.299313   -0.115620   -2.217477
      8          6           0        8.350559    0.729004   -3.085439
      9          6           0        9.188835    2.098608   -3.022184
     10          6           0       10.054918    1.900300   -1.803098
     11          6           0       10.044037    2.423633   -4.276184
     12          6           0        6.887618    0.917850   -2.479207
     13          6           0        5.735949    1.232564   -3.421395
     14          1           0        5.035581    2.608018   -3.433019
     15          7           0       12.099582    2.019455    0.666620
     16          6           0       11.717122    3.059664   -0.129563
     17          6           0       12.325214    4.250135    0.272331
     18          6           0       13.149061    3.883862    1.402507
     19          6           0       12.902577    2.436152    1.656144
     20          6           0       12.137645    5.602289   -0.405094
     21          6           0       14.026152    4.880277    2.126344
     22          8           0       14.058545    6.076248    1.737351
     23          6           0       15.006157    4.493877    3.289533
     24          7           0       12.549964   -0.764319    1.830178
     25          6           0       13.252696    0.095325    2.717305
     26          6           0       14.089082   -0.718840    3.664876
     27          6           0       13.450920   -2.124437    3.628712
     28          6           0       12.692180   -2.084571    2.270193
     29          6           0       15.600815   -0.897192    3.397964
     30          6           0       12.404220   -2.356505    4.841416
     31          6           0       12.944228   -2.804126    6.191331
     32          7           0       10.956213   -2.010721   -0.249352
     33          6           0       11.198819   -3.180320    0.455206
     34          6           0       10.463668   -4.239146   -0.043600
     35          6           0        9.703451   -3.665061   -1.076899
     36          6           0       10.027350   -2.299268   -1.139930
     37          6           0       10.522434   -5.645643    0.463163
     38          6           0        8.845030   -3.948080   -2.102296
     39          8           0        8.446945   -5.018258   -2.518280
     40          6           0        8.349189   -2.559737   -2.558442
     41          6           0        6.937210   -2.472549   -2.060956
     42          8           0        6.624506   -2.581319   -0.916203
     43          8           0        6.055945   -2.326466   -3.133743
     44          6           0        4.695505   -2.407656   -2.729286
     45          1           0       10.622447    3.913153   -1.796816
     46          1           0       14.116416    1.948509    3.323112
     47          1           0       12.310934   -4.150392    2.110710
     48          1           0        8.366888    0.430121   -4.133002
     49          1           0        8.456649    2.901327   -2.939254
     50          1           0        9.407795    3.123945   -4.818079
     51          1           0       10.204975    1.548363   -4.905437
     52          1           0       10.975788    2.922218   -4.008562
     53          1           0        6.872148    1.752768   -1.778592
     54          1           0        6.690966    0.033926   -1.872099
     55          1           0        4.994510    0.466013   -3.191452
     56          1           0        6.086198    1.031712   -4.433733
     57          1           0       12.977955    6.294044   -0.472767
     58          1           0       11.297564    5.954476    0.193058
     59          1           0       11.912639    5.459606   -1.462052
     60          1           0       15.758986    3.801477    2.913768
     61          1           0       14.328479    4.065621    4.027820
     62          1           0       15.458705    5.323465    3.832588
     63          1           0       13.920875   -0.299639    4.656353
     64          1           0       14.197035   -2.918662    3.656154
     65          1           0       15.909659   -1.910155    3.140450
     66          1           0       16.197458   -0.270602    4.061241
     67          1           0       15.758341   -0.374790    2.454498
     68          1           0       11.772127   -3.123452    4.394265
     69          1           0       11.812988   -1.458187    5.020100
     70          1           0       12.573274   -2.131943    6.964593
     71          1           0       14.033750   -2.765887    6.172578
     72          1           0       12.583114   -3.798837    6.453856
     73          1           0        9.487576   -5.951162    0.614783
     74          1           0       11.001339   -5.721220    1.440182
     75          1           0       10.981054   -6.333796   -0.247126
     76          1           0        8.370906   -2.536366   -3.647431
     77          1           0        4.348623   -3.436770   -2.818465
     78          1           0        4.009186   -1.900671   -3.408611
     79          1           0        4.546115   -2.074983   -1.703518
     80         12           0      -11.029127    0.238178    0.623121
     81          6           0       -8.537161    0.287717   -1.797235
     82          6           0      -11.231797   -3.158401    0.181170
     83          6           0      -13.682675    0.201803    2.830441
     84          6           0      -11.169721    3.721103    0.616732
     85          7           0       -9.923857   -1.250258   -0.596778
     86          6           0       -8.885210   -1.039441   -1.423215
     87          6           0       -8.209854   -2.323603   -1.958428
     88          6           0       -9.252907   -3.428307   -1.494168
     89          6           0      -10.262987   -2.572502   -0.589393
     90          6           0       -9.891743   -4.095364   -2.764166
     91          6           0       -6.762135   -2.426293   -1.251454
     92          6           0       -5.535628   -2.585448   -2.197472
     93          1           0       -5.896027   -3.130104   -3.626879
     94          7           0      -12.349430   -1.217107    1.368503
     95          6           0      -12.194186   -2.595562    1.114614
     96          6           0      -13.075974   -3.331683    1.995239
     97          6           0      -13.821465   -2.396019    2.723592
     98          6           0      -13.245763   -1.041647    2.386227
     99          6           0      -13.310533   -4.837552    1.809449
    100          6           0      -14.978118   -2.664037    3.722698
    101          8           0      -15.602728   -1.786918    4.348102
    102          6           0      -15.344594   -4.125507    4.033237
    103          7           0      -12.274977    1.784643    1.501348
    104          6           0      -13.290493    1.456131    2.450258
    105          6           0      -14.087274    2.718178    2.841659
    106          6           0      -13.084900    3.861133    2.343784
    107          6           0      -12.080439    3.072814    1.462864
    108          6           0      -15.469357    2.660818    2.212143
    109          6           0      -12.336649    4.549690    3.562003
    110          6           0      -11.543166    3.792774    4.680954
    111          7           0      -10.144109    1.717471   -0.405238
    112          6           0      -10.293249    3.105915   -0.333768
    113          6           0       -9.386851    3.719165   -1.249468
    114          6           0       -8.656888    2.684862   -1.806815
    115          6           0       -9.210020    1.462269   -1.352225
    116          6           0       -9.279464    5.190979   -1.592395
    117          6           0       -7.608268    2.393332   -2.701821
    118          8           0       -7.019510    3.160546   -3.394809
    119          6           0       -7.573405    0.813049   -2.815572
    120          6           0       -7.996371    0.489258   -4.221789
    121          8           0       -9.082995    0.037022   -4.516450
    122          8           0       -6.985844    0.826594   -5.031763
    123          6           0       -7.397826    0.995178   -6.403797
    124          1           0      -11.249343   -4.247605    0.108361
    125          1           0      -14.655008    0.184239    3.325803
    126          1           0      -11.209118    4.812640    0.594456
    127          1           0       -8.037810   -2.342586   -3.034427
    128          1           0       -8.840400   -4.207150   -0.852396
    129          1           0      -10.969900   -4.249076   -2.713027
    130          1           0       -9.340355   -5.035070   -2.749261
    131          1           0       -9.540917   -3.527526   -3.625569
    132          1           0       -6.833761   -3.199812   -0.487125
    133          1           0       -6.627808   -1.504165   -0.685469
    134          1           0       -4.932068   -3.294807   -1.632274
    135          1           0       -4.948173   -1.679943   -2.346410
    136          1           0      -14.382209   -4.977252    1.665453
    137          1           0      -13.060231   -5.358072    2.734822
    138          1           0      -12.719682   -5.204113    0.970599
    139          1           0      -15.857426   -4.514488    3.152606
    140          1           0      -16.103133   -4.075998    4.814254
    141          1           0      -14.485224   -4.631171    4.472882
    142          1           0      -14.071095    2.725078    3.931907
    143          1           0      -13.648498    4.670874    1.881752
    144          1           0      -15.828556    1.642959    2.059469
    145          1           0      -15.472307    3.167015    1.247086
    146          1           0      -16.212762    3.109476    2.870727
    147          1           0      -13.047457    5.217083    4.049383
    148          1           0      -11.548023    5.113028    3.063119
    149          1           0      -12.241236    3.532773    5.476818
    150          1           0      -10.801397    4.507082    5.040142
    151          1           0      -10.936271    2.948364    4.352665
    152          1           0       -9.037353    5.801096   -0.722013
    153          1           0      -10.277959    5.446904   -1.946227
    154          1           0       -8.450894    5.464846   -2.247023
    155          1           0       -6.614699    0.314109   -2.672861
    156          1           0       -6.814085    1.733364   -6.953229
    157          1           0       -8.447563    1.099126   -6.677928
    158          1           0       -7.240733    0.106585   -7.015592
 ---------------------------------------------------------------------

 SCF Done:  E(RPBE1PBE) =  -4067.35685537     A.U. after   16 cycles

 Excitation energies and oscillator strengths:

 Excited State   1:      Singlet-A      1.6349 eV  758.35 nm  f=0.0000  <S**2>=0.000
     312 -> 313        0.70710
 This state for optimization and/or second-order correction.
 Total Energy, E(TD-HF/TD-DFT) =  -4067.29677305
 Copying the excited state density for this state as the 1-particle RhoCI density.

 Excited State   2:      Singlet-A      1.8553 eV  668.26 nm  f=0.3621  <S**2>=0.000
     310 -> 316        0.16975
     312 -> 314        0.69305
     312 <- 314       -0.10778

 Excited State   3:      Singlet-A      1.8620 eV  665.88 nm  f=0.3944  <S**2>=0.000
     309 -> 315       -0.18172
     311 -> 313        0.68855
     311 <- 313       -0.10550

 Excited State   4:      Singlet-A      2.1541 eV  575.57 nm  f=0.1188  <S**2>=0.000
     309 -> 313        0.65687
     311 -> 315        0.24311

 Excited State   5:      Singlet-A      2.1940 eV  565.11 nm  f=0.0000  <S**2>=0.000
     311 -> 314        0.70709

 The electronic state is 1-A.
 Alpha  occ. eigenvalues --  -46.93713 -46.91465 -19.26703 -19.26046 -19.21113
 Alpha  occ. eigenvalues --  -19.20182 -19.19350 -19.18986 -19.18383 -19.18175
 Alpha  occ. eigenvalues --  -14.42518 -14.42357 -14.41702 -14.40928 -14.39460
 Alpha  occ. eigenvalues --  -14.39308 -14.38856 -14.38640 -10.36711 -10.36215
 Alpha  occ. eigenvalues --  -10.32429 -10.32244 -10.31743 -10.30485 -10.30131
 Alpha  occ. eigenvalues --  -10.30115 -10.29473 -10.29180 -10.28556 -10.28513
 Alpha  occ. eigenvalues --  -10.28374 -10.28240 -10.28225 -10.28200 -10.27939
 Alpha  occ. eigenvalues --  -10.27730 -10.27708 -10.27665 -10.27616 -10.27557
 Alpha  occ. eigenvalues --  -10.27373 -10.27057 -10.26574 -10.26370 -10.26327
 Alpha  occ. eigenvalues --  -10.26256 -10.26238 -10.25986 -10.25848 -10.25845
 Alpha  occ. eigenvalues --  -10.25718 -10.25684 -10.25656 -10.25626 -10.25617
 Alpha  occ. eigenvalues --  -10.25575 -10.25529 -10.25513 -10.25482 -10.25327
 Alpha  occ. eigenvalues --  -10.25275 -10.25247 -10.25231 -10.25038 -10.24930
 Alpha  occ. eigenvalues --  -10.24911 -10.24716 -10.24704 -10.24276 -10.24246
 Alpha  occ. eigenvalues --  -10.24198 -10.24142 -10.24061 -10.24011 -10.23678
 Alpha  occ. eigenvalues --  -10.23584 -10.23510 -10.23322 -10.23293 -10.23181
 Alpha  occ. eigenvalues --  -10.23131 -10.22997 -10.22912 -10.22773 -10.22133
 Alpha  occ. eigenvalues --  -10.21896  -3.15592  -3.13645  -1.88430  -1.87958
 Alpha  occ. eigenvalues --   -1.87810  -1.86487  -1.85997  -1.85891  -1.12847
 Alpha  occ. eigenvalues --   -1.12391  -1.06583  -1.04855  -1.04320  -1.03786
 Alpha  occ. eigenvalues --   -1.03192  -1.02072  -1.00350  -0.99364  -0.98675
 Alpha  occ. eigenvalues --   -0.98616  -0.97882  -0.97281  -0.96544  -0.95979
 Alpha  occ. eigenvalues --   -0.88741  -0.87010  -0.83235  -0.83047  -0.82997
 Alpha  occ. eigenvalues --   -0.82927  -0.82335  -0.82020  -0.81950  -0.81439
 Alpha  occ. eigenvalues --   -0.81314  -0.80802  -0.80360  -0.80233  -0.78665
 Alpha  occ. eigenvalues --   -0.78183  -0.77942  -0.77618  -0.77182  -0.76526
 Alpha  occ. eigenvalues --   -0.76174  -0.75481  -0.75177  -0.75031  -0.74602
 Alpha  occ. eigenvalues --   -0.74187  -0.72413  -0.72046  -0.71722  -0.71372
 Alpha  occ. eigenvalues --   -0.71226  -0.71003  -0.70302  -0.70092  -0.70061
 Alpha  occ. eigenvalues --   -0.69337  -0.68090  -0.67340  -0.66711  -0.65631
 Alpha  occ. eigenvalues --   -0.63932  -0.63222  -0.63058  -0.62938  -0.62798
 Alpha  occ. eigenvalues --   -0.62307  -0.61659  -0.60857  -0.60695  -0.60256
 Alpha  occ. eigenvalues --   -0.59810  -0.59304  -0.59059  -0.59013  -0.58790
 Alpha  occ. eigenvalues --   -0.58380  -0.57382  -0.56907  -0.55039  -0.54740
 Alpha  occ. eigenvalues --   -0.54437  -0.54159  -0.53914  -0.53794  -0.53577
 Alpha  occ. eigenvalues --   -0.53530  -0.52747  -0.52731  -0.52585  -0.51818
 Alpha  occ. eigenvalues --   -0.51144  -0.50688  -0.50291  -0.50214  -0.49885
 Alpha  occ. eigenvalues --   -0.49679  -0.49504  -0.49022  -0.48487  -0.48462
 Alpha  occ. eigenvalues --   -0.48172  -0.47828  -0.47796  -0.47750  -0.47359
 Alpha  occ. eigenvalues --   -0.47242  -0.46997  -0.46796  -0.46697  -0.46506
 Alpha  occ. eigenvalues --   -0.46448  -0.46364  -0.46204  -0.46063  -0.45799
 Alpha  occ. eigenvalues --   -0.45552  -0.45490  -0.45164  -0.45083  -0.44739
 Alpha  occ. eigenvalues --   -0.44494  -0.44426  -0.44395  -0.44365  -0.44051
 Alpha  occ. eigenvalues --   -0.44005  -0.43806  -0.43653  -0.43563  -0.43516
 Alpha  occ. eigenvalues --   -0.43265  -0.43114  -0.42955  -0.42662  -0.42587
 Alpha  occ. eigenvalues --   -0.42434  -0.42164  -0.42036  -0.41898  -0.41722
 Alpha  occ. eigenvalues --   -0.41682  -0.41336  -0.41297  -0.41145  -0.41104
 Alpha  occ. eigenvalues --   -0.41016  -0.40921  -0.40808  -0.40557  -0.40407
 Alpha  occ. eigenvalues --   -0.40255  -0.40068  -0.39864  -0.39739  -0.39657
 Alpha  occ. eigenvalues --   -0.39524  -0.39491  -0.39429  -0.39226  -0.38942
 Alpha  occ. eigenvalues --   -0.38676  -0.38642  -0.38461  -0.38373  -0.38183
 Alpha  occ. eigenvalues --   -0.38147  -0.38016  -0.37875  -0.37801  -0.37747
 Alpha  occ. eigenvalues --   -0.37474  -0.37432  -0.37322  -0.37236  -0.37100
 Alpha  occ. eigenvalues --   -0.36858  -0.36614  -0.36412  -0.36213  -0.36202
 Alpha  occ. eigenvalues --   -0.36018  -0.35848  -0.35688  -0.35633  -0.35404
 Alpha  occ. eigenvalues --   -0.35237  -0.35164  -0.34481  -0.34359  -0.34077
 Alpha  occ. eigenvalues --   -0.33502  -0.32842  -0.32665  -0.32646  -0.32459
 Alpha  occ. eigenvalues --   -0.32099  -0.32069  -0.31935  -0.31914  -0.31631
 Alpha  occ. eigenvalues --   -0.31530  -0.31193  -0.30414  -0.30269  -0.29601
 Alpha  occ. eigenvalues --   -0.29178  -0.29033  -0.28248  -0.27122  -0.27100
 Alpha  occ. eigenvalues --   -0.26133  -0.25719  -0.25574  -0.25457  -0.25361
 Alpha  occ. eigenvalues --   -0.25251  -0.25150  -0.24634  -0.21325  -0.20669
 Alpha  occ. eigenvalues --   -0.19646  -0.18595
 Alpha virt. eigenvalues --   -0.12007  -0.10992  -0.05998  -0.04906  -0.04290
 Alpha virt. eigenvalues --   -0.03620  -0.01901  -0.01878  -0.01411  -0.00314
 Alpha virt. eigenvalues --    0.00097   0.00558   0.00730   0.01261   0.01619

 Mulliken charges:
               1
     1  Mg  12.000000
     2  C    6.000000
     3  C    6.000000
     4  C    6.000000
     5  C    6.000000
     6  N    7.000000
     7  C    6.000000
     8  C    6.000000
     9  C    6.000000
    10  C    6.000000
    11  C    6.000000
    12  C    6.000000
    13  C    6.000000
    14  H    1.000000
    15  N    7.000000
    16  C    6.000000
    17  C    6.000000
    18  C    6.000000
    19  C    6.000000
    20  C    6.000000
    21  C    6.000000
    22  O    8.000000
    23  C    6.000000
    24  N    7.000000
    25  C    6.000000
    26  C    6.000000
    27  C    6.000000
    28  C    6.000000
    29  C    6.000000
    30  C    6.000000
    31  C    6.000000
    32  N    7.000000
    33  C    6.000000
    34  C    6.000000
    35  C    6.000000
    36  C    6.000000
    37  C    6.000000
    38  C    6.000000
    39  O    8.000000
    40  C    6.000000
    41  C    6.000000
    42  O    8.000000
    43  O    8.000000
    44  C    6.000000
    45  H    1.000000
    46  H    1.000000
    47  H    1.000000
    48  H    1.000000
    49  H    1.000000
    50  H    1.000000
    51  H    1.000000
    52  H    1.000000
    53  H    1.000000
    54  H    1.000000
    55  H    1.000000
    56  H    1.000000
    57  H    1.000000
    58  H    1.000000
    59  H    1.000000
    60  H    1.000000
    61  H    1.000000
    62  H    1.000000
    63  H    1.000000
    64  H    1.000000
    65  H    1.000000
    66  H    1.000000
    67  H    1.000000
    68  H    1.000000
    69  H    1.000000
    70  H    1.000000
    71  H    1.000000
    72  H    1.000000
    73  H    1.000000
    74  H    1.000000
    75  H    1.000000
    76  H    1.000000
    77  H    1.000000
    78  H    1.000000
    79  H    1.000000
    80  Mg  12.000000
    81  C    6.000000
    82  C    6.000000
    83  C    6.000000
    84  C    6.000000
    85  N    7.000000
    86  C    6.000000
    87  C    6.000000
    88  C    6.000000
    89  C    6.000000
    90  C    6.000000
    91  C    6.000000
    92  C    6.000000
    93  H    1.000000
    94  N    7.000000
    95  C    6.000000
    96  C    6.000000
    97  C    6.000000
    98  C    6.000000
    99  C    6.000000
   100  C    6.000000
   101  O    8.000000
   102  C    6.000000
   103  N    7.000000
   104  C    6.000000
   105  C    6.000000
   106  C    6.000000
   107  C    6.000000
   108  C    6.000000
   109  C    6.000000
   110  C    6.000000
   111  N    7.000000
   112  C    6.000000
   113  C    6.000000
   114  C    6.000000
   115  C    6.000000
   116  C    6.000000
   117  C    6.000000
   118  O    8.000000
   119  C    6.000000
   120  C    6.000000
   121  O    8.000000
   122  O    8.000000
   123  C    6.000000
   124  H    1.000000
   125  H    1.000000
   126  H    1.000000
   127  H    1.000000
   128  H    1.000000
   129  H    1.000000
   130  H    1.000000
   131  H    1.000000
   132  H    1.000000
   133  H    1.000000
   134  H    1.000000
   135  H    1.000000
   136  H    1.000000
   137  H    1.000000
   138  H    1.000000
   139  H    1.000000
   140  H    1.000000
   141  H    1.000000
   142  H    1.000000
   143  H    1.000000
   144  H    1.000000
   145  H    1.000000
   146  H    1.000000
   147  H    1.000000
   148  H    1.000000
   149  H    1.000000
   150  H    1.000000
   151  H    1.000000
   152  H    1.000000
   153  H    1.000000
   154  H    1.000000
   155  H    1.000000
   156  H    1.000000
   157  H    1.000000
   158  H    1.000000
 Sum of Mulliken charges = 624.00000

 Dipole moment (field-independent basis, Debye):
    X=              0.0000    Y=             -0.0000    Z=             -0.0000  Tot=              0.0000
 Quadrupole moment (field-independent basis, Debye-Ang):
   XX=             -0.0000   YY=              0.0000   ZZ=              0.0000
   XY=              0.0000   XZ=             -0.0000   YZ=             -0.0000

 Normal termination of Gaussian 16 at Thu Oct 14 17:58:30 2021.
