 Gaussian 16, Revision A.03,
 Gaussian 16:  ES64L-G16RevA.03 25-Dec-2016

 --------------------------------------------------------
 #p PBE1PBE/Def2SVP td=(nstates=5) density=(transition=1)
 --------------------------------------------------------

 --------------------------------
 TDDFT excited states in gaussian
 --------------------------------
 Symbolic Z-matrix:
 Charge =  0 Multiplicity = 1

                         Standard orientation:
 ---------------------------------------------------------------------
 Center     Atomic      Atomic             Coordinates (Angstroms)
 Number     Number       Type             X           Y           Z
 ---------------------------------------------------------------------
      1         12           0       22.023448   -0.685425    0.266437
      2          6           0       21.578181    2.394511   -1.531972
      3          6           0       22.858458    1.327350    3.063289
      4          6           0       22.642549   -3.551574    2.163332
      5          6           0       21.607260   -2.473901   -2.524342
      6          7           0       22.388248    1.683303    0.607674
      7          6           0       22.024100    2.674181   -0.234265
      8          6           0       22.345081    4.070017    0.411335
      9          6           0       22.946937    3.615381    1.788912
     10          6           0       22.652935    2.100950    1.888909
     11          6           0       24.468867    3.971389    1.921412
     12          6           0       21.114738    4.963255    0.568347
     13          6           0       21.286842    6.397060    0.187315
     14          1           0       20.063529    7.324327    0.227014
     15          7           0       22.447655   -1.089814    2.325725
     16          6           0       22.759984   -0.124110    3.276777
     17          6           0       22.987511   -0.795256    4.541208
     18          6           0       22.838455   -2.160005    4.357874
     19          6           0       22.705732   -2.336199    2.872368
     20          6           0       23.460365   -0.118701    5.795716
     21          6           0       22.989720   -3.370559    5.367374
     22          8           0       22.846637   -4.546098    5.135536
     23          6           0       23.174834   -3.066050    6.838174
     24          7           0       22.265549   -2.660968   -0.105968
     25          6           0       22.508130   -3.692751    0.762920
     26          6           0       22.758673   -5.029839    0.027206
     27          6           0       22.186853   -4.737340   -1.424978
     28          6           0       21.975160   -3.178004   -1.333806
     29          6           0       24.251329   -5.487491    0.082781
     30          6           0       20.875138   -5.505585   -1.771141
     31          6           0       19.635381   -5.086857   -0.984072
     32          7           0       21.701430   -0.230314   -1.627268
     33          6           0       21.469325   -1.096569   -2.731814
     34          6           0       21.217527   -0.323959   -3.946265
     35          6           0       21.200167    1.011327   -3.504892
     36          6           0       21.479889    1.037540   -2.112918
     37          6           0       20.971983   -0.868516   -5.276370
     38          6           0       21.012659    2.370146   -4.003041
     39          8           0       20.701165    2.751269   -5.118926
     40          6           0       21.338899    3.354886   -2.755480
     41          6           0       20.057447    4.191867   -2.749580
     42          8           0       18.914186    3.852515   -2.394727
     43          8           0       20.324225    5.380907   -3.261252
     44          6           0       19.307060    6.499359   -3.111712
     45          1           0       23.040966    1.957692    3.935760
     46          1           0       22.825570   -4.500958    2.672625
     47          1           0       21.408770   -3.122067   -3.380113
     48          1           0       22.999063    4.553855   -0.313357
     49          1           0       22.416722    4.066630    2.628642
     50          1           0       24.746619    4.564567    2.792671
     51          1           0       24.917150    4.354205    1.004377
     52          1           0       25.138787    3.140000    2.141878
     53          1           0       21.106241    5.113634    1.648036
     54          1           0       20.193696    4.490937    0.224957
     55          1           0       21.771714    6.655964   -0.755339
     56          1           0       21.958041    6.773570    0.959295
     57          1           0       23.439706    0.966049    5.694070
     58          1           0       24.465451   -0.392551    6.120268
     59          1           0       22.850730   -0.291460    6.682772
     60          1           0       22.344278   -2.494059    7.251678
     61          1           0       24.132213   -2.544922    6.830945
     62          1           0       23.373988   -4.046900    7.269920
     63          1           0       22.224689   -5.760558    0.635690
     64          1           0       22.898764   -4.720606   -2.250503
     65          1           0       24.395870   -6.376000    0.697348
     66          1           0       25.007264   -4.747729    0.343910
     67          1           0       24.437191   -5.705407   -0.969073
     68          1           0       21.126711   -6.563935   -1.841175
     69          1           0       20.626018   -5.267868   -2.805182
     70          1           0       19.801237   -4.372145   -0.178804
     71          1           0       19.261866   -6.001264   -0.523822
     72          1           0       18.882152   -4.534535   -1.544754
     73          1           0       20.812387   -0.124592   -6.057149
     74          1           0       20.086732   -1.494403   -5.164379
     75          1           0       21.812788   -1.517852   -5.524413
     76          1           0       22.125290    4.072622   -2.988960
     77          1           0       19.855205    7.422028   -3.303566
     78          1           0       18.926409    6.593505   -2.095139
     79          1           0       18.433078    6.380978   -3.753267
     80         12           0      -21.545829   -0.520246   -0.324546
     81          6           0      -23.266327    1.549468    1.749500
     82          6           0      -19.625481    2.030434   -1.631974
     83          6           0      -20.090659   -2.762838   -2.463851
     84          6           0      -23.785487   -3.193012    0.640410
     85          7           0      -21.618609    1.561826   -0.117362
     86          6           0      -22.241914    2.205727    1.003695
     87          6           0      -21.719346    3.574741    1.183878
     88          6           0      -20.886980    3.771816   -0.161682
     89          6           0      -20.671632    2.380863   -0.715273
     90          6           0      -21.635340    4.705762   -1.238665
     91          6           0      -21.006048    3.827779    2.547606
     92          6           0      -21.373194    5.104865    3.232240
     93          1           0      -21.549317    6.367438    2.299623
     94          7           0      -20.007938   -0.396065   -1.791529
     95          6           0      -19.394867    0.768068   -2.148323
     96          6           0      -18.423426    0.453595   -3.139103
     97          6           0      -18.448828   -0.977582   -3.367813
     98          6           0      -19.520786   -1.503088   -2.457532
     99          6           0      -17.604217    1.544443   -3.862953
    100          6           0      -17.636450   -1.890627   -4.231952
    101          8           0      -17.800819   -3.097575   -4.442475
    102          6           0      -16.384009   -1.224068   -4.917166
    103          7           0      -21.955255   -2.703334   -0.940059
    104          6           0      -21.158238   -3.368655   -1.738571
    105          6           0      -21.412316   -4.874004   -1.693788
    106          6           0      -22.598433   -4.990515   -0.694314
    107          6           0      -22.820406   -3.530017   -0.306134
    108          6           0      -21.750278   -5.516422   -3.133911
    109          6           0      -22.142410   -5.888743    0.538751
    110          6           0      -21.052305   -5.398955    1.523786
    111          7           0      -23.299967   -0.754819    0.815269
    112          6           0      -24.027131   -1.885268    1.137031
    113          6           0      -24.988976   -1.477420    2.181206
    114          6           0      -24.771189   -0.170989    2.501126
    115          6           0      -23.706214    0.227609    1.614221
    116          6           0      -26.110545   -2.331906    2.662580
    117          6           0      -25.168223    0.966015    3.331241
    118          8           0      -26.035371    1.075889    4.181779
    119          6           0      -24.189580    2.122844    2.844045
    120          6           0      -25.030913    3.185489    2.257013
    121          8           0      -25.856603    3.085383    1.332792
    122          8           0      -24.697034    4.313769    2.978374
    123          6           0      -25.272738    5.560328    2.456931
    124          1           0      -18.962085    2.799544   -2.032639
    125          1           0      -19.504795   -3.444576   -3.084948
    126          1           0      -24.419709   -4.004588    1.001395
    127          1           0      -22.609689    4.204800    1.178906
    128          1           0      -19.923010    4.205365    0.102847
    129          1           0      -22.467963    5.272456   -0.821894
    130          1           0      -22.126776    4.025892   -1.934489
    131          1           0      -20.819842    5.264310   -1.696231
    132          1           0      -19.926253    3.843558    2.399358
    133          1           0      -21.336290    2.980660    3.148631
    134          1           0      -20.608548    5.451719    3.926187
    135          1           0      -22.240133    5.171661    3.889694
    136          1           0      -16.782453    1.977899   -3.293053
    137          1           0      -18.374556    2.262141   -4.144578
    138          1           0      -17.049350    1.161702   -4.719267
    139          1           0      -16.726422   -0.576506   -5.724370
    140          1           0      -15.660685   -2.010676   -5.131215
    141          1           0      -15.777783   -0.628756   -4.234074
    142          1           0      -20.535040   -5.359202   -1.266584
    143          1           0      -23.488944   -5.448836   -1.124567
    144          1           0      -20.858598   -6.071165   -3.428116
    145          1           0      -21.931096   -4.727037   -3.864203
    146          1           0      -22.561446   -6.237416   -3.226906
    147          1           0      -21.851963   -6.907939    0.284354
    148          1           0      -23.060094   -5.908129    1.127514
    149          1           0      -21.607258   -5.299662    2.456771
    150          1           0      -20.576330   -4.474527    1.199114
    151          1           0      -20.232479   -6.103835    1.661898
    152          1           0      -26.215780   -2.020104    3.701261
    153          1           0      -25.900927   -3.397950    2.572806
    154          1           0      -27.026432   -1.938805    2.223243
    155          1           0      -23.815516    2.452616    3.812925
    156          1           0      -24.985948    6.280328    3.223933
    157          1           0      -26.353925    5.429014    2.500533
    158          1           0      -25.029449    5.798581    1.421281
 ---------------------------------------------------------------------

 SCF Done:  E(RPBE1PBE) =  -4067.35731771     A.U. after   16 cycles

 Excitation energies and oscillator strengths:

 Excited State   1:      Singlet-A      1.8203 eV  681.14 nm  f=0.3495  <S**2>=0.000
     310 -> 316        0.17689
     312 -> 313        0.69218
     312 <- 313       -0.10907
 This state for optimization and/or second-order correction.
 Total Energy, E(TD-HF/TD-DFT) =  -4067.29042445
 Copying the excited state density for this state as the 1-particle RhoCI density.

 Excited State   2:      Singlet-A      1.8382 eV  674.48 nm  f=0.3818  <S**2>=0.000
     309 -> 315       -0.17962
     311 -> 314        0.69166
     311 <- 314       -0.10362

 Excited State   3:      Singlet-A      1.9552 eV  634.13 nm  f=0.0000  <S**2>=0.000
     311 -> 313        0.70711

 Excited State   4:      Singlet-A      1.9842 eV  624.86 nm  f=0.0000  <S**2>=0.000
     312 -> 314        0.70711

 Excited State   5:      Singlet-A      2.2320 eV  555.49 nm  f=0.0919  <S**2>=0.000
     310 -> 313        0.63924
     312 -> 316       -0.29203

 The electronic state is 1-A.
 Alpha  occ. eigenvalues --  -46.92639 -46.91731 -19.26356 -19.25599 -19.20553
 Alpha  occ. eigenvalues --  -19.19938 -19.19672 -19.19648 -19.19544 -19.18293
 Alpha  occ. eigenvalues --  -14.41980 -14.41969 -14.41574 -14.41132 -14.39749
 Alpha  occ. eigenvalues --  -14.39434 -14.39222 -14.39080 -10.36602 -10.35535
 Alpha  occ. eigenvalues --  -10.32711 -10.32703 -10.32660 -10.32626 -10.29635
 Alpha  occ. eigenvalues --  -10.29586 -10.29449 -10.29253 -10.29106 -10.29085
 Alpha  occ. eigenvalues --  -10.29003 -10.28839 -10.28699 -10.28507 -10.28306
 Alpha  occ. eigenvalues --  -10.28108 -10.27918 -10.27852 -10.27696 -10.27605
 Alpha  occ. eigenvalues --  -10.27335 -10.26728 -10.26687 -10.26647 -10.26584
 Alpha  occ. eigenvalues --  -10.26571 -10.26432 -10.26318 -10.26304 -10.26256
 Alpha  occ. eigenvalues --  -10.26235 -10.26219 -10.26152 -10.26005 -10.25967
 Alpha  occ. eigenvalues --  -10.25877 -10.25863 -10.25746 -10.25572 -10.25421
 Alpha  occ. eigenvalues --  -10.25390 -10.25372 -10.25190 -10.25177 -10.25080
 Alpha  occ. eigenvalues --  -10.24966 -10.24937 -10.24725 -10.24508 -10.24285
 Alpha  occ. eigenvalues --  -10.24231 -10.24220 -10.24077 -10.23722 -10.23713
 Alpha  occ. eigenvalues --  -10.23677 -10.23588 -10.23487 -10.23335 -10.23232
 Alpha  occ. eigenvalues --  -10.23124 -10.22998 -10.22980 -10.22941 -10.22838
 Alpha  occ. eigenvalues --  -10.22659  -3.14628  -3.13998  -1.87471  -1.86991
 Alpha  occ. eigenvalues --   -1.86850  -1.86824  -1.86390  -1.86227  -1.10772
 Alpha  occ. eigenvalues --   -1.10757  -1.06162  -1.05092  -1.04843  -1.04150
 Alpha  occ. eigenvalues --   -1.02327  -1.00120  -0.99767  -0.98593  -0.98404
 Alpha  occ. eigenvalues --   -0.97756  -0.97436  -0.96880  -0.96394  -0.96317
 Alpha  occ. eigenvalues --   -0.86824  -0.85234  -0.83503  -0.83402  -0.83098
 Alpha  occ. eigenvalues --   -0.83036  -0.82304  -0.82299  -0.81725  -0.81714
 Alpha  occ. eigenvalues --   -0.81255  -0.81253  -0.80772  -0.80398  -0.78947
 Alpha  occ. eigenvalues --   -0.78406  -0.77877  -0.77680  -0.76685  -0.76654
 Alpha  occ. eigenvalues --   -0.75880  -0.75672  -0.75482  -0.75349  -0.74514
 Alpha  occ. eigenvalues --   -0.74129  -0.72440  -0.72342  -0.71677  -0.71628
 Alpha  occ. eigenvalues --   -0.71473  -0.71265  -0.70293  -0.70153  -0.69498
 Alpha  occ. eigenvalues --   -0.69310  -0.67072  -0.66940  -0.66652  -0.66102
 Alpha  occ. eigenvalues --   -0.64424  -0.64185  -0.63651  -0.63181  -0.62844
 Alpha  occ. eigenvalues --   -0.61983  -0.61833  -0.60672  -0.59905  -0.59814
 Alpha  occ. eigenvalues --   -0.59638  -0.59476  -0.59224  -0.59154  -0.58943
 Alpha  occ. eigenvalues --   -0.58668  -0.57126  -0.56417  -0.54829  -0.54128
 Alpha  occ. eigenvalues --   -0.53999  -0.53939  -0.53499  -0.53499  -0.53383
 Alpha  occ. eigenvalues --   -0.52506  -0.52407  -0.52114  -0.51981  -0.50662
 Alpha  occ. eigenvalues --   -0.50557  -0.50292  -0.50095  -0.50013  -0.49651
 Alpha  occ. eigenvalues --   -0.49530  -0.49449  -0.49169  -0.49032  -0.48523
 Alpha  occ. eigenvalues --   -0.48125  -0.47929  -0.47826  -0.47753  -0.47674
 Alpha  occ. eigenvalues --   -0.47548  -0.47279  -0.46982  -0.46976  -0.46917
 Alpha  occ. eigenvalues --   -0.46657  -0.46477  -0.46313  -0.46219  -0.46215
 Alpha  occ. eigenvalues --   -0.45652  -0.45590  -0.45478  -0.45402  -0.44733
 Alpha  occ. eigenvalues --   -0.44535  -0.44404  -0.44285  -0.44222  -0.43965
 Alpha  occ. eigenvalues --   -0.43895  -0.43862  -0.43580  -0.43476  -0.43261
 Alpha  occ. eigenvalues --   -0.43237  -0.43203  -0.43115  -0.43090  -0.42761
 Alpha  occ. eigenvalues --   -0.42758  -0.42342  -0.42257  -0.42170  -0.42087
 Alpha  occ. eigenvalues --   -0.42003  -0.41605  -0.41518  -0.41368  -0.41337
 Alpha  occ. eigenvalues --   -0.41080  -0.40934  -0.40880  -0.40605  -0.40586
 Alpha  occ. eigenvalues --   -0.40315  -0.40313  -0.39945  -0.39921  -0.39719
 Alpha  occ. eigenvalues --   -0.39501  -0.39303  -0.39240  -0.39018  -0.38836
 Alpha  occ. eigenvalues --   -0.38749  -0.38435  -0.38268  -0.38252  -0.38014
 Alpha  occ. eigenvalues --   -0.37956  -0.37892  -0.37788  -0.37738  -0.37682
 Alpha  occ. eigenvalues --   -0.37652  -0.37245  -0.37095  -0.37064  -0.36989
 Alpha  occ. eigenvalues --   -0.36885  -0.36857  -0.36748  -0.36503  -0.36427
 Alpha  occ. eigenvalues --   -0.36251  -0.35750  -0.35665  -0.35368  -0.35284
 Alpha  occ. eigenvalues --   -0.35159  -0.34731  -0.34562  -0.34478  -0.34044
 Alpha  occ. eigenvalues --   -0.33582  -0.33076  -0.32859  -0.32549  -0.32523
 Alpha  occ. eigenvalues --   -0.32150  -0.31742  -0.31736  -0.31478  -0.31378
 Alpha  occ. eigenvalues --   -0.31100  -0.30682  -0.29633  -0.29381  -0.29129
 Alpha  occ. eigenvalues --   -0.29017  -0.28691  -0.27651  -0.26937  -0.26875
 Alpha  occ. eigenvalues --   -0.26335  -0.26100  -0.25948  -0.25863  -0.25701
 Alpha  occ. eigenvalues --   -0.25651  -0.25542  -0.25434  -0.21297  -0.21061
 Alpha  occ. eigenvalues --   -0.18662  -0.18658
 Alpha virt. eigenvalues --   -0.11177  -0.11063  -0.05791  -0.05516  -0.04449
 Alpha virt. eigenvalues --   -0.03614  -0.02272  -0.02076  -0.00867   0.00070
 Alpha virt. eigenvalues --    0.00582   0.00804   0.00841   0.01044   0.01337

 Mulliken charges:
               1
     1  Mg  12.000237
     2  C    5.983213
     3  C    6.014558
     4  C    6.020824
     5  C    5.999272
     6  N    6.990838
     7  C    6.025962
     8  C    5.995408
     9  C    6.005728
    10  C    5.970176
    11  C    6.001949
    12  C    5.994972
    13  C    5.998386
    14  H    1.000138
    15  N    7.004438
    16  C    5.958482
    17  C    5.984290
    18  C    5.983170
    19  C    5.965905
    20  C    6.005327
    21  C    5.987555
    22  O    7.974495
    23  C    6.003127
    24  N    7.011283
    25  C    5.962808
    26  C    6.006158
    27  C    5.996074
    28  C    6.031092
    29  C    6.004461
    30  C    5.995102
    31  C    5.994496
    32  N    6.997806
    33  C    6.032356
    34  C    6.028600
    35  C    6.002397
    36  C    6.029579
    37  C    5.999520
    38  C    6.015725
    39  O    8.026779
    40  C    6.001968
    41  C    6.003342
    42  O    8.005325
    43  O    8.000088
    44  C    5.998109
    45  H    0.989962
    46  H    0.993736
    47  H    1.011704
    48  H    0.996388
    49  H    1.001307
    50  H    0.997461
    51  H    0.988279
    52  H    1.002323
    53  H    1.008547
    54  H    0.996489
    55  H    0.996740
    56  H    1.005255
    57  H    0.983979
    58  H    0.981461
    59  H    0.982646
    60  H    0.992754
    61  H    0.995269
    62  H    0.986886
    63  H    1.002773
    64  H    0.997861
    65  H    1.000551
    66  H    1.001546
    67  H    0.987849
    68  H    1.009522
    69  H    0.996076
    70  H    1.010265
    71  H    1.007839
    72  H    0.996200
    73  H    1.013477
    74  H    1.017005
    75  H    1.016997
    76  H    1.008440
    77  H    1.004314
    78  H    1.005056
    79  H    1.001527
    80  Mg  11.999982
    81  C    5.999611
    82  C    6.000378
    83  C    6.000094
    84  C    5.999740
    85  N    6.999902
    86  C    6.000793
    87  C    5.999734
    88  C    6.000257
    89  C    5.999188
    90  C    6.000008
    91  C    5.999933
    92  C    5.999902
    93  H    1.000167
    94  N    7.000131
    95  C    5.999249
    96  C    5.999514
    97  C    5.999584
    98  C    5.999431
    99  C    5.999996
   100  C    5.999707
   101  O    7.999326
   102  C    6.000070
   103  N    6.999938
   104  C    5.999472
   105  C    6.000209
   106  C    5.999752
   107  C    6.000753
   108  C    6.000057
   109  C    5.999953
   110  C    5.999930
   111  N    6.999819
   112  C    6.000895
   113  C    6.000608
   114  C    6.000109
   115  C    6.000713
   116  C    6.000003
   117  C    6.000438
   118  O    8.000650
   119  C    6.000011
   120  C    6.000156
   121  O    7.999996
   122  O    8.000093
   123  C    5.999953
   124  H    0.999804
   125  H    0.999818
   126  H    1.000206
   127  H    1.000041
   128  H    0.999973
   129  H    0.999708
   130  H    0.999984
   131  H    0.999994
   132  H    1.000261
   133  H    0.999912
   134  H    1.000102
   135  H    0.999952
   136  H    0.999538
   137  H    0.999673
   138  H    0.999663
   139  H    0.999774
   140  H    0.999650
   141  H    0.999813
   142  H    0.999992
   143  H    1.000062
   144  H    1.000018
   145  H    1.000044
   146  H    0.999802
   147  H    1.000211
   148  H    0.999919
   149  H    0.999901
   150  H    1.000167
   151  H    1.000149
   152  H    1.000350
   153  H    1.000409
   154  H    1.000439
   155  H    1.000183
   156  H    1.000111
   157  H    1.000044
   158  H    1.000126
 Sum of Mulliken charges = 624.00000

 Dipole moment (field-independent basis, Debye):
    X=             -2.6700    Y=              1.6204    Z=             -9.5666  Tot=             10.0635
 Quadrupole moment (field-independent basis, Debye-Ang):
   XX=           -101.8850   YY=              0.3178   ZZ=             -8.0081
   XY=             36.7555   XZ=           -219.1882   YZ=              7.1046

 Normal termination of Gaussian 16 at Thu Oct 14 13:46:14 2021.
