 Gaussian 16, Revision A.03,
 Gaussian 16:  ES64L-G16RevA.03 25-Dec-2016

 ---------------------------------------------------------
 #p PBE1PBE/Def2SVP td=(nstates=5, root=1) density=current
 ---------------------------------------------------------

 --------------------------------
 TDDFT excited states in gaussian
 --------------------------------
 Symbolic Z-matrix:
 Charge =  0 Multiplicity = 1

                         Standard orientation:
 ---------------------------------------------------------------------
 Center     Atomic      Atomic             Coordinates (Angstroms)
 Number     Number       Type             X           Y           Z
 ---------------------------------------------------------------------
      1         12           0       -0.811082    0.051755    0.116600
      2          6           0        2.744947    0.039066    0.279626
      3          6           0       -0.732394   -3.383369   -0.011122
      4          6           0       -4.102204    0.261778   -0.091444
      5          6           0       -0.720045    3.626041   -0.251529
      6          7           0        0.869906   -1.556441    0.063320
      7          6           0        2.207392   -1.258661    0.249789
      8          6           0        2.953198   -2.635183    0.320694
      9          6           0        1.811341   -3.776995    0.181349
     10          6           0        0.590917   -2.859290    0.056159
     11          6           0        2.016975   -4.809595   -0.946451
     12          6           0        3.969712   -2.843493    1.518231
     13          6           0        5.385559   -3.148763    1.123978
     14          1           0        5.764691   -3.839637   -0.159281
     15          7           0       -2.293909   -1.435908    0.092791
     16          6           0       -2.042368   -2.770486    0.034271
     17          6           0       -3.319021   -3.418780    0.190553
     18          6           0       -4.299733   -2.411087    0.066531
     19          6           0       -3.611864   -1.081481   -0.012991
     20          6           0       -3.398754   -4.952733    0.268610
     21          6           0       -5.776530   -2.602338   -0.102795
     22          8           0       -6.542495   -1.634442   -0.323528
     23          6           0       -6.341400   -3.973840   -0.066134
     24          7           0       -2.182246    1.770698   -0.204801
     25          6           0       -3.454282    1.574938   -0.169619
     26          6           0       -4.401941    2.888597   -0.228019
     27          6           0       -3.295127    3.951634   -0.299189
     28          6           0       -2.030656    3.129381   -0.250253
     29          6           0       -5.339470    2.806437   -1.487951
     30          6           0       -3.309829    5.065275    0.806192
     31          6           0       -2.887100    4.632496    2.230175
     32          7           0        0.649718    1.467556   -0.089722
     33          6           0        0.508155    2.865376   -0.256083
     34          6           0        1.850159    3.461426   -0.206349
     35          6           0        2.751547    2.391696    0.010539
     36          6           0        1.966633    1.194185    0.118205
     37          6           0        2.169146    4.981767   -0.326421
     38          6           0        4.080677    2.129507    0.187182
     39          8           0        5.065395    2.838788    0.149220
     40          6           0        4.189898    0.599188    0.435927
     41          6           0        5.139956    0.049882   -0.503635
     42          8           0        4.859639   -0.346600   -1.640472
     43          8           0        6.441890    0.252442   -0.030575
     44          6           0        7.506588   -0.101443   -1.001795
     45          1           0       -0.835762   -4.429854   -0.306763
     46          1           0       -5.168675    0.303375   -0.322805
     47          1           0       -0.635913    4.709736   -0.355856
     48          1           0        3.603354   -2.499065   -0.542555
     49          1           0        1.817946   -4.390028    1.081501
     50          1           0        2.007355   -5.824230   -0.546247
     51          1           0        2.906088   -4.690539   -1.565417
     52          1           0        1.154065   -4.659739   -1.595324
     53          1           0        3.609553   -3.631129    2.180350
     54          1           0        3.999695   -1.885308    2.037023
     55          1           0        5.715756   -3.958480    1.775664
     56          1           0        5.964587   -2.231908    1.228641
     57          1           0       -2.434068   -5.402707    0.504264
     58          1           0       -3.760916   -5.349684   -0.678872
     59          1           0       -4.112089   -5.145426    1.069292
     60          1           0       -6.065653   -4.402764    0.897259
     61          1           0       -5.898321   -4.607471   -0.835397
     62          1           0       -7.412916   -3.953474   -0.260865
     63          1           0       -4.986956    2.997013    0.685607
     64          1           0       -3.251083    4.363337   -1.307746
     65          1           0       -4.816121    2.233872   -2.253654
     66          1           0       -5.478052    3.817337   -1.872948
     67          1           0       -6.328291    2.364552   -1.362510
     68          1           0       -4.254391    5.607198    0.771210
     69          1           0       -2.629349    5.852162    0.482344
     70          1           0       -3.123452    3.610136    2.523260
     71          1           0       -3.276469    5.367234    2.935818
     72          1           0       -1.806438    4.771892    2.254667
     73          1           0        2.827959    5.345168    0.462319
     74          1           0        1.278160    5.607099   -0.370381
     75          1           0        2.868182    5.131587   -1.149608
     76          1           0        4.585270    0.572587    1.450813
     77          1           0        7.515565    0.602267   -1.833757
     78          1           0        7.388640   -1.080900   -1.463896
     79          1           0        8.420827   -0.224914   -0.421004
 ---------------------------------------------------------------------

 SCF Done:  E(RPBE1PBE) =  -2033.68717984     A.U. after   15 cycles

 Excitation energies and oscillator strengths:

 Excited State   1:      Singlet-A      1.8677 eV  663.84 nm  f=0.3644  <S**2>=0.000
     155 ->158         0.18706
     156 ->157         0.68778
 This state for optimization and/or second-order correction.
 Total Energy, E(TD-HF/TD-DFT) =  -2033.61854329
 Copying the excited state density for this state as the 1-particle RhoCI density.

 Excited State   2:      Singlet-A      2.2069 eV  561.81 nm  f=0.1037  <S**2>=0.000
     155 ->157         0.65389
     156 ->158        -0.25869

 Excited State   3:      Singlet-A      2.9955 eV  413.90 nm  f=0.0001  <S**2>=0.000
     152 ->157         0.65359
     152 ->159        -0.16788
     152 ->160         0.10718
     154 ->157         0.13356

 Excited State   4:      Singlet-A      3.0162 eV  411.06 nm  f=0.0015  <S**2>=0.000
     152 ->157        -0.12990
     154 ->157         0.65880
     154 ->159         0.15354

 Excited State   5:      Singlet-A      3.1594 eV  392.43 nm  f=0.0159  <S**2>=0.000
     151 ->157        -0.40404
     153 ->157         0.52687
     156 ->158        -0.19440

 The electronic state is 1-A.
 Alpha  occ. eigenvalues --  -46.93202 -19.25007 -19.19600 -19.18695 -19.18135
 Alpha  occ. eigenvalues --  -14.42061 -14.41432 -14.39532 -14.39297 -10.35683
 Alpha  occ. eigenvalues --  -10.31885 -10.30686 -10.29432 -10.29169 -10.29018
 Alpha  occ. eigenvalues --  -10.28804 -10.28228 -10.28169 -10.28084 -10.28072
 Alpha  occ. eigenvalues --  -10.26757 -10.26618 -10.26574 -10.26168 -10.26127
 Alpha  occ. eigenvalues --  -10.25996 -10.25976 -10.25507 -10.25475 -10.25310
 Alpha  occ. eigenvalues --  -10.25306 -10.25133 -10.25014 -10.24936 -10.24886
 Alpha  occ. eigenvalues --  -10.24560 -10.24221 -10.23760 -10.23676 -10.23412
 Alpha  occ. eigenvalues --  -10.23386 -10.23339 -10.22015  -3.15125  -1.87979
 Alpha  occ. eigenvalues --   -1.87534  -1.87304  -1.09167  -1.04319  -1.02867
 Alpha  occ. eigenvalues --   -1.01203  -1.00742  -0.98189  -0.97597  -0.96602
 Alpha  occ. eigenvalues --   -0.86872  -0.84066  -0.82385  -0.82047  -0.81402
 Alpha  occ. eigenvalues --   -0.81113  -0.79936  -0.78560  -0.77700  -0.76845
 Alpha  occ. eigenvalues --   -0.76218  -0.75038  -0.74399  -0.72442  -0.71889
 Alpha  occ. eigenvalues --   -0.70787  -0.70105  -0.69323  -0.67079  -0.65996
 Alpha  occ. eigenvalues --   -0.64792  -0.63545  -0.62269  -0.61226  -0.59797
 Alpha  occ. eigenvalues --   -0.59433  -0.59123  -0.58787  -0.56097  -0.54600
 Alpha  occ. eigenvalues --   -0.54126  -0.53268  -0.52715  -0.52459  -0.52132
 Alpha  occ. eigenvalues --   -0.50837  -0.50565  -0.49872  -0.49441  -0.48172
 Alpha  occ. eigenvalues --   -0.47651  -0.47561  -0.47313  -0.47207  -0.46602
 Alpha  occ. eigenvalues --   -0.46114  -0.45828  -0.45512  -0.44833  -0.44466
 Alpha  occ. eigenvalues --   -0.44113  -0.43845  -0.43769  -0.43528  -0.43352
 Alpha  occ. eigenvalues --   -0.43217  -0.42659  -0.42497  -0.42191  -0.42017
 Alpha  occ. eigenvalues --   -0.41438  -0.41330  -0.41234  -0.40897  -0.40610
 Alpha  occ. eigenvalues --   -0.40288  -0.39800  -0.39479  -0.39120  -0.38660
 Alpha  occ. eigenvalues --   -0.38480  -0.38066  -0.37994  -0.37649  -0.37395
 Alpha  occ. eigenvalues --   -0.37209  -0.36763  -0.36689  -0.36514  -0.36198
 Alpha  occ. eigenvalues --   -0.36069  -0.35967  -0.35507  -0.35032  -0.34667
 Alpha  occ. eigenvalues --   -0.34065  -0.31939  -0.31709  -0.31501  -0.31078
 Alpha  occ. eigenvalues --   -0.30573  -0.29138  -0.28676  -0.28462  -0.26862
 Alpha  occ. eigenvalues --   -0.25758  -0.25626  -0.25508  -0.25188  -0.20716
 Alpha  occ. eigenvalues --   -0.18844
 Alpha virt. eigenvalues --   -0.11065  -0.05271  -0.04040  -0.02076  -0.00174
 Alpha virt. eigenvalues --    0.00362   0.01473   0.02555   0.02871   0.03825
 Alpha virt. eigenvalues --    0.05132   0.05286   0.05825   0.06320   0.07429

 Mulliken charges:
               1
     1  Mg   0.946309
     2  C    0.003501
     3  C   -0.076414
     4  C   -0.045130
     5  C   -0.086353
     6  N   -0.359536
     7  C    0.033153
     8  C   -0.079935
     9  C   -0.130605
    10  C    0.094352
    11  C    0.008235
    12  C   -0.016188
    13  C   -0.160338
    14  H    0.041082
    15  N   -0.514928
    16  C    0.146357
    17  C   -0.194728
    18  C   -0.086349
    19  C    0.176864
    20  C    0.058543
    21  C    0.034988
    22  O   -0.277665
    23  C   -0.005252
    24  N   -0.319256
    25  C    0.040046
    26  C   -0.132702
    27  C    0.005029
    28  C   -0.010104
    29  C   -0.012369
    30  C   -0.049052
    31  C   -0.054762
    32  N   -0.514039
    33  C    0.170643
    34  C   -0.171078
    35  C    0.007295
    36  C    0.164044
    37  C    0.076051
    38  C    0.040671
    39  O   -0.210100
    40  C   -0.097678
    41  C    0.290576
    42  O   -0.270571
    43  O   -0.380501
    44  C    0.135022
    45  H    0.016277
    46  H    0.034026
    47  H    0.000172
    48  H    0.079271
    49  H    0.058241
    50  H    0.041110
    51  H    0.055978
    52  H    0.043811
    53  H    0.041318
    54  H    0.048537
    55  H    0.054654
    56  H    0.071936
    57  H    0.046324
    58  H    0.065192
    59  H    0.050278
    60  H    0.055136
    61  H    0.053943
    62  H    0.054873
    63  H    0.064168
    64  H    0.050790
    65  H    0.053701
    66  H    0.042695
    67  H    0.071111
    68  H    0.040593
    69  H    0.034483
    70  H    0.059175
    71  H    0.047456
    72  H    0.046672
    73  H    0.051205
    74  H    0.038475
    75  H    0.058754
    76  H    0.080588
    77  H    0.068100
    78  H    0.046802
    79  H    0.057021
 Sum of Mulliken charges =  -0.00000

 Dipole moment (field-independent basis, Debye):
    X=             -1.3558    Y=             -1.6999    Z=              1.9286  Tot=              2.9065
 Quadrupole moment (field-independent basis, Debye-Ang):
   XX=           -276.5558   YY=           -216.6741   ZZ=           -257.1610
   XY=            -25.8764   XZ=              2.1528   YZ=             -3.1515

 Normal termination of Gaussian 16 at Wed Oct 13 13:22:03 2021.
