 Gaussian 16, Revision A.03,
 Gaussian 16:  ES64L-G16RevA.03 25-Dec-2016

 --------------------------------------------------------
 #p PBE1PBE/Def2SVP td=(nstates=5) density=(transition=1)
 --------------------------------------------------------

 --------------------------------
 TDDFT excited states in gaussian
 --------------------------------
 Symbolic Z-matrix:
 Charge =  0 Multiplicity = 1

                         Standard orientation:
 ---------------------------------------------------------------------
 Center     Atomic      Atomic             Coordinates (Angstroms)
 Number     Number       Type             X           Y           Z
 ---------------------------------------------------------------------
      1         12           0       24.909622   -0.908197    0.082629
      2          6           0       26.423497    2.219739   -0.601632
      3          6           0       23.569758    0.632512    2.919806
      4          6           0       23.342252   -3.700220    0.808911
      5          6           0       26.973075   -2.395818   -2.287830
      6          7           0       24.988749    1.189669    0.984695
      7          6           0       25.534107    2.325064    0.466436
      8          6           0       25.352864    3.602591    1.303979
      9          6           0       24.503240    2.955096    2.511314
     10          6           0       24.376843    1.518435    2.098739
     11          6           0       25.205532    3.046402    3.923622
     12          6           0       24.574184    4.726258    0.545259
     13          6           0       25.185046    6.047035    0.093397
     14          1           0       24.377067    7.337941    0.108604
     15          7           0       23.562071   -1.469540    1.601853
     16          6           0       23.185630   -0.717975    2.724356
     17          6           0       22.387104   -1.576698    3.570239
     18          6           0       22.170053   -2.783220    2.909316
     19          6           0       22.993611   -2.670178    1.689761
     20          6           0       21.772704   -0.993090    4.796566
     21          6           0       21.397986   -4.037073    3.318523
     22          8           0       21.315012   -5.064019    2.637962
     23          6           0       20.584069   -3.952096    4.549287
     24          7           0       25.172159   -2.820603   -0.543538
     25          6           0       24.265168   -3.806848   -0.270705
     26          6           0       24.403103   -4.994994   -1.281988
     27          6           0       25.591744   -4.578499   -2.138563
     28          6           0       26.006936   -3.186977   -1.585202
     29          6           0       24.512406   -6.394064   -0.592171
     30          6           0       25.178828   -4.553948   -3.618104
     31          6           0       26.104389   -5.142369   -4.619963
     32          7           0       26.473627   -0.302556   -1.136618
     33          6           0       27.201188   -0.998387   -2.068702
     34          6           0       28.134243   -0.147588   -2.744898
     35          6           0       27.832421    1.228504   -2.290009
     36          6           0       26.787753    1.041093   -1.301410
     37          6           0       29.180020   -0.599737   -3.778461
     38          6           0       28.149396    2.675104   -2.395353
     39          8           0       28.876553    3.280275   -3.201192
     40          6           0       27.230215    3.354217   -1.298335
     41          6           0       28.278111    4.007375   -0.452368
     42          8           0       28.910841    3.530335    0.481900
     43          8           0       28.386210    5.274530   -0.744767
     44          6           0       29.477809    6.078045   -0.142795
     45          1           0       23.103040    1.274755    3.669139
     46          1           0       22.923114   -4.696774    0.960589
     47          1           0       27.561123   -2.867756   -3.077260
     48          1           0       26.338928    3.909015    1.655337
     49          1           0       23.477264    3.293035    2.660413
     50          1           0       26.269888    3.279571    3.935096
     51          1           0       25.111022    2.094685    4.445327
     52          1           0       24.690344    3.805082    4.513045
     53          1           0       23.750151    5.018546    1.196338
     54          1           0       24.162484    4.336688   -0.384914
     55          1           0       25.318343    5.845362   -0.969558
     56          1           0       26.090631    6.087168    0.698796
     57          1           0       20.684558   -1.018789    4.758104
     58          1           0       22.073254    0.046431    4.930000
     59          1           0       22.045910   -1.522270    5.708985
     60          1           0       19.968594   -3.053002    4.516333
     61          1           0       21.188141   -3.758949    5.435908
     62          1           0       19.892193   -4.781925    4.689906
     63          1           0       23.450792   -4.941472   -1.809313
     64          1           0       26.390400   -5.318516   -2.090097
     65          1           0       24.317276   -6.381300    0.480045
     66          1           0       25.490298   -6.862049   -0.699162
     67          1           0       23.891352   -7.115091   -1.123490
     68          1           0       25.066788   -3.487621   -3.810120
     69          1           0       24.247417   -5.074407   -3.839661
     70          1           0       26.273849   -4.340424   -5.338098
     71          1           0       25.690189   -6.068695   -5.017911
     72          1           0       27.106419   -5.358454   -4.248734
     73          1           0       30.108064   -0.839912   -3.260973
     74          1           0       29.311286    0.203338   -4.503520
     75          1           0       28.881786   -1.513028   -4.293763
     76          1           0       26.627037    4.099923   -1.815895
     77          1           0       29.443170    6.128922    0.944916
     78          1           0       29.545228    7.096205   -0.525574
     79          1           0       30.497532    5.755119   -0.350276
     80         12           0      -25.724544   -0.531644   -0.116864
     81          6           0      -24.219692    2.720131   -0.704546
     82          6           0      -26.104485    0.484496    3.075000
     83          6           0      -26.990162   -3.419975    0.391602
     84          6           0      -24.893118   -1.430356   -3.439200
     85          7           0      -25.206832    1.504597    1.061798
     86          6           0      -24.706924    2.658382    0.586690
     87          6           0      -24.771406    3.752806    1.669119
     88          6           0      -24.951309    2.784680    2.929634
     89          6           0      -25.502236    1.553855    2.342173
     90          6           0      -23.818116    2.694719    3.937974
     91          6           0      -25.943907    4.696094    1.349172
     92          6           0      -25.750317    6.123969    1.939367
     93          1           0      -24.361403    6.642300    2.536999
     94          7           0      -26.516447   -1.386040    1.529215
     95          6           0      -26.519208   -0.859622    2.806719
     96          6           0      -27.081430   -1.863872    3.704615
     97          6           0      -27.419445   -2.991420    2.916205
     98          6           0      -26.961999   -2.612393    1.549319
     99          6           0      -27.237289   -1.685114    5.149158
    100          6           0      -28.156044   -4.369550    3.333626
    101          8           0      -28.528035   -5.157925    2.508103
    102          6           0      -28.684044   -4.598757    4.761187
    103          7           0      -25.658279   -2.273707   -1.295514
    104          6           0      -26.407470   -3.295977   -0.890340
    105          6           0      -26.559847   -4.395955   -1.906265
    106          6           0      -26.248873   -3.586592   -3.188961
    107          6           0      -25.406144   -2.416615   -2.574046
    108          6           0      -25.542044   -5.614769   -1.714711
    109          6           0      -27.501689   -3.121184   -4.043431
    110          6           0      -28.804699   -3.972451   -4.037789
    111          7           0      -24.677116    0.349119   -1.710616
    112          6           0      -24.462891   -0.060067   -2.985539
    113          6           0      -23.922665    0.953939   -3.772341
    114          6           0      -23.776542    2.000865   -2.907665
    115          6           0      -24.254301    1.638604   -1.663731
    116          6           0      -23.646079    0.877731   -5.271359
    117          6           0      -23.322342    3.399368   -2.882665
    118          8           0      -22.695714    4.087050   -3.674796
    119          6           0      -23.691920    3.916227   -1.424110
    120          6           0      -22.496168    4.516388   -0.858811
    121          8           0      -21.526386    3.925443   -0.373197
    122          8           0      -22.516034    5.822417   -1.197513
    123          6           0      -21.221871    6.459724   -1.032996
    124          1           0      -26.056733    0.747925    4.133742
    125          1           0      -27.392411   -4.410340    0.612312
    126          1           0      -24.744827   -1.721392   -4.481024
    127          1           0      -23.812733    4.258173    1.786637
    128          1           0      -25.755570    3.221470    3.520072
    129          1           0      -24.092018    3.122164    4.902056
    130          1           0      -22.936539    3.212670    3.560756
    131          1           0      -23.452080    1.681916    4.106494
    132          1           0      -26.821024    4.307415    1.867044
    133          1           0      -26.204453    4.738643    0.291785
    134          1           0      -26.539042    6.377996    2.648251
    135          1           0      -26.108952    6.749332    1.121927
    136          1           0      -27.291995   -0.631646    5.422767
    137          1           0      -26.361686   -2.162887    5.588986
    138          1           0      -28.140103   -2.138746    5.558703
    139          1           0      -29.496252   -3.928832    5.043256
    140          1           0      -27.790107   -4.592139    5.385216
    141          1           0      -29.026712   -5.628381    4.867207
    142          1           0      -27.587349   -4.724320   -1.751518
    143          1           0      -25.606169   -4.122390   -3.887070
    144          1           0      -26.206208   -6.471277   -1.828103
    145          1           0      -25.066604   -5.655255   -0.734073
    146          1           0      -24.759195   -5.701281   -2.467247
    147          1           0      -27.178854   -2.957361   -5.070575
    148          1           0      -27.780398   -2.214365   -3.506384
    149          1           0      -29.442141   -3.685297   -3.201893
    150          1           0      -28.432440   -4.997507   -4.039643
    151          1           0      -29.363501   -3.876654   -4.968094
    152          1           0      -24.387632    0.173406   -5.649100
    153          1           0      -22.674272    0.445447   -5.507942
    154          1           0      -23.770475    1.875487   -5.691818
    155          1           0      -24.479495    4.659667   -1.553369
    156          1           0      -21.216482    7.509669   -1.324326
    157          1           0      -20.356938    5.913930   -1.410319
    158          1           0      -20.969833    6.537757    0.025152
 ---------------------------------------------------------------------

 SCF Done:  E(RPBE1PBE) =  -4067.34638660     A.U. after   16 cycles

 Excitation energies and oscillator strengths:

 Excited State   1:      Singlet-A      1.8639 eV  665.20 nm  f=0.3656  <S**2>=0.000
     309 -> 315       -0.18324
     312 -> 313        0.68972
 This state for optimization and/or second-order correction.
 Total Energy, E(TD-HF/TD-DFT) =  -4067.27789094
 Copying the excited state density for this state as the 1-particle RhoCI density.

 Excited State   2:      Singlet-A      1.9474 eV  636.65 nm  f=0.3567  <S**2>=0.000
     310 -> 316       -0.18525
     311 -> 314        0.68732

 Excited State   3:      Singlet-A      2.0601 eV  601.84 nm  f=0.0000  <S**2>=0.000
     311 -> 313        0.70711

 Excited State   4:      Singlet-A      2.1058 eV  588.79 nm  f=0.0000  <S**2>=0.000
     312 -> 314        0.70711

 Excited State   5:      Singlet-A      2.2119 eV  560.54 nm  f=0.1050  <S**2>=0.000
     309 -> 313        0.65041
     312 -> 315        0.26770

 The electronic state is 1-A.
 Alpha  occ. eigenvalues --  -46.92768 -46.91954 -19.25951 -19.25581 -19.20515
 Alpha  occ. eigenvalues --  -19.19503 -19.19365 -19.19326 -19.19045 -19.18488
 Alpha  occ. eigenvalues --  -14.41945 -14.41550 -14.40789 -14.40751 -14.39448
 Alpha  occ. eigenvalues --  -14.39350 -14.38851 -14.38485 -10.35705 -10.35237
 Alpha  occ. eigenvalues --  -10.33954 -10.32849 -10.32803 -10.32196 -10.29204
 Alpha  occ. eigenvalues --  -10.29143 -10.28936 -10.28846 -10.28599 -10.28479
 Alpha  occ. eigenvalues --  -10.28405 -10.28247 -10.28129 -10.28048 -10.28035
 Alpha  occ. eigenvalues --  -10.27800 -10.27552 -10.27511 -10.26985 -10.26889
 Alpha  occ. eigenvalues --  -10.26832 -10.26751 -10.26677 -10.26605 -10.26528
 Alpha  occ. eigenvalues --  -10.26471 -10.26384 -10.25937 -10.25914 -10.25907
 Alpha  occ. eigenvalues --  -10.25872 -10.25815 -10.25751 -10.25724 -10.25340
 Alpha  occ. eigenvalues --  -10.25335 -10.25299 -10.25245 -10.25203 -10.25188
 Alpha  occ. eigenvalues --  -10.25185 -10.25135 -10.24925 -10.24885 -10.24833
 Alpha  occ. eigenvalues --  -10.24647 -10.24451 -10.24441 -10.24252 -10.24119
 Alpha  occ. eigenvalues --  -10.23928 -10.23927 -10.23847 -10.23596 -10.23522
 Alpha  occ. eigenvalues --  -10.23475 -10.23469 -10.23444 -10.23356 -10.23297
 Alpha  occ. eigenvalues --  -10.23124 -10.23032 -10.22928 -10.22918 -10.22351
 Alpha  occ. eigenvalues --  -10.21750  -3.14850  -3.14128  -1.87692  -1.87242
 Alpha  occ. eigenvalues --   -1.87058  -1.86971  -1.86505  -1.86356  -1.12640
 Alpha  occ. eigenvalues --   -1.11310  -1.07172  -1.04519  -1.04416  -1.03349
 Alpha  occ. eigenvalues --   -1.01475  -1.01344  -1.00454  -1.00032  -0.99775
 Alpha  occ. eigenvalues --   -0.99172  -0.98440  -0.98387  -0.97431  -0.96288
 Alpha  occ. eigenvalues --   -0.86813  -0.86308  -0.83831  -0.83233  -0.83212
 Alpha  occ. eigenvalues --   -0.82975  -0.82941  -0.82422  -0.81860  -0.81738
 Alpha  occ. eigenvalues --   -0.81259  -0.81079  -0.80186  -0.79512  -0.78680
 Alpha  occ. eigenvalues --   -0.78602  -0.77883  -0.77479  -0.77168  -0.76669
 Alpha  occ. eigenvalues --   -0.76636  -0.75911  -0.75191  -0.75092  -0.74838
 Alpha  occ. eigenvalues --   -0.74470  -0.72867  -0.72699  -0.71862  -0.71196
 Alpha  occ. eigenvalues --   -0.71161  -0.70992  -0.70591  -0.70122  -0.69602
 Alpha  occ. eigenvalues --   -0.69484  -0.67322  -0.66788  -0.66223  -0.66073
 Alpha  occ. eigenvalues --   -0.63981  -0.63487  -0.63171  -0.62645  -0.62236
 Alpha  occ. eigenvalues --   -0.62205  -0.61257  -0.61083  -0.60203  -0.59932
 Alpha  occ. eigenvalues --   -0.59714  -0.59548  -0.59387  -0.59145  -0.58774
 Alpha  occ. eigenvalues --   -0.58266  -0.57084  -0.56454  -0.55259  -0.55195
 Alpha  occ. eigenvalues --   -0.54013  -0.53998  -0.53850  -0.53620  -0.53109
 Alpha  occ. eigenvalues --   -0.52977  -0.52523  -0.52421  -0.52278  -0.52141
 Alpha  occ. eigenvalues --   -0.51128  -0.51013  -0.50202  -0.50029  -0.49821
 Alpha  occ. eigenvalues --   -0.49616  -0.49151  -0.48894  -0.48806  -0.48562
 Alpha  occ. eigenvalues --   -0.48424  -0.48229  -0.48045  -0.47904  -0.47571
 Alpha  occ. eigenvalues --   -0.47411  -0.47249  -0.47234  -0.46889  -0.46836
 Alpha  occ. eigenvalues --   -0.46736  -0.46095  -0.46087  -0.45943  -0.45756
 Alpha  occ. eigenvalues --   -0.45327  -0.45260  -0.45008  -0.44976  -0.44759
 Alpha  occ. eigenvalues --   -0.44612  -0.44379  -0.44289  -0.44215  -0.43918
 Alpha  occ. eigenvalues --   -0.43572  -0.43553  -0.43476  -0.43463  -0.43350
 Alpha  occ. eigenvalues --   -0.43314  -0.43135  -0.42888  -0.42862  -0.42662
 Alpha  occ. eigenvalues --   -0.42607  -0.42373  -0.42236  -0.42201  -0.42097
 Alpha  occ. eigenvalues --   -0.41741  -0.41465  -0.41265  -0.40978  -0.40804
 Alpha  occ. eigenvalues --   -0.40792  -0.40644  -0.40579  -0.40336  -0.40286
 Alpha  occ. eigenvalues --   -0.40208  -0.40008  -0.39846  -0.39805  -0.39520
 Alpha  occ. eigenvalues --   -0.39445  -0.39147  -0.39131  -0.38975  -0.38864
 Alpha  occ. eigenvalues --   -0.38837  -0.38797  -0.38682  -0.38425  -0.38081
 Alpha  occ. eigenvalues --   -0.38070  -0.38018  -0.37886  -0.37838  -0.37699
 Alpha  occ. eigenvalues --   -0.37571  -0.37410  -0.37375  -0.37165  -0.37073
 Alpha  occ. eigenvalues --   -0.36696  -0.36411  -0.36308  -0.36303  -0.36179
 Alpha  occ. eigenvalues --   -0.36100  -0.35719  -0.35359  -0.35345  -0.35022
 Alpha  occ. eigenvalues --   -0.34815  -0.34646  -0.34415  -0.34228  -0.33621
 Alpha  occ. eigenvalues --   -0.33416  -0.33185  -0.33002  -0.32905  -0.32443
 Alpha  occ. eigenvalues --   -0.32243  -0.31732  -0.31683  -0.31343  -0.30870
 Alpha  occ. eigenvalues --   -0.30866  -0.30710  -0.29683  -0.29430  -0.28855
 Alpha  occ. eigenvalues --   -0.28679  -0.28079  -0.27996  -0.27258  -0.26965
 Alpha  occ. eigenvalues --   -0.26584  -0.26322  -0.26169  -0.25943  -0.25699
 Alpha  occ. eigenvalues --   -0.25538  -0.25301  -0.24685  -0.20813  -0.20355
 Alpha  occ. eigenvalues --   -0.18892  -0.18775
 Alpha virt. eigenvalues --   -0.11058  -0.10779  -0.05385  -0.04652  -0.04385
 Alpha virt. eigenvalues --   -0.03630  -0.02275  -0.01837  -0.00453  -0.00163
 Alpha virt. eigenvalues --    0.00109   0.01072   0.01091   0.01623   0.01797

 Mulliken charges:
               1
     1  Mg  11.995320
     2  C    6.019728
     3  C    5.999100
     4  C    5.974082
     5  C    6.006157
     6  N    7.011374
     7  C    5.967445
     8  C    6.015265
     9  C    5.989110
    10  C    6.030482
    11  C    5.995783
    12  C    6.002724
    13  C    6.002076
    14  H    0.994220
    15  N    6.992977
    16  C    6.032763
    17  C    6.018171
    18  C    6.019031
    19  C    6.026173
    20  C    5.994274
    21  C    6.012987
    22  O    8.028992
    23  C    5.995392
    24  N    6.989917
    25  C    6.041040
    26  C    5.994121
    27  C    6.007334
    28  C    5.972667
    29  C    5.997224
    30  C    6.002087
    31  C    6.000142
    32  N    7.000315
    33  C    5.971527
    34  C    5.969081
    35  C    5.999280
    36  C    5.969485
    37  C    6.000050
    38  C    5.981821
    39  O    7.973191
    40  C    5.998649
    41  C    5.999119
    42  O    7.992197
    43  O    7.999171
    44  C    6.002592
    45  H    1.012564
    46  H    1.002977
    47  H    0.990248
    48  H    0.999092
    49  H    0.999177
    50  H    1.012717
    51  H    0.995526
    52  H    1.006530
    53  H    0.991362
    54  H    1.001177
    55  H    1.004632
    56  H    1.000002
    57  H    1.017463
    58  H    1.014998
    59  H    1.018008
    60  H    1.005343
    61  H    1.007100
    62  H    1.013678
    63  H    0.999720
    64  H    0.997500
    65  H    0.993903
    66  H    1.007405
    67  H    1.003145
    68  H    1.003805
    69  H    0.989428
    70  H    1.003176
    71  H    0.993984
    72  H    1.000950
    73  H    0.980519
    74  H    0.985730
    75  H    0.982449
    76  H    0.992004
    77  H    0.993954
    78  H    0.995939
    79  H    0.999159
    80  Mg  12.000006
    81  C    5.999960
    82  C    5.999989
    83  C    6.000041
    84  C    6.000029
    85  N    6.999979
    86  C    6.000021
    87  C    5.999996
    88  C    6.000014
    89  C    5.999985
    90  C    6.000010
    91  C    5.999996
    92  C    6.000003
    93  H    0.999971
    94  N    7.000006
    95  C    5.999978
    96  C    5.999987
    97  C    6.000011
    98  C    5.999970
    99  C    6.000000
   100  C    5.999984
   101  O    7.999996
   102  C    6.000005
   103  N    7.000009
   104  C    5.999961
   105  C    6.000009
   106  C    5.999990
   107  C    5.999998
   108  C    5.999994
   109  C    5.999996
   110  C    6.000003
   111  N    6.999994
   112  C    6.000003
   113  C    6.000019
   114  C    5.999993
   115  C    6.000019
   116  C    6.000004
   117  C    6.000014
   118  O    8.000020
   119  C    5.999999
   120  C    6.000008
   121  O    7.999976
   122  O    8.000011
   123  C    6.000010
   124  H    0.999978
   125  H    1.000001
   126  H    1.000014
   127  H    0.999983
   128  H    1.000007
   129  H    0.999994
   130  H    0.999970
   131  H    0.999975
   132  H    1.000019
   133  H    1.000009
   134  H    1.000016
   135  H    1.000018
   136  H    0.999994
   137  H    0.999961
   138  H    0.999997
   139  H    1.000012
   140  H    0.999973
   141  H    0.999991
   142  H    1.000020
   143  H    1.000000
   144  H    1.000012
   145  H    0.999981
   146  H    0.999985
   147  H    1.000011
   148  H    1.000008
   149  H    1.000012
   150  H    0.999998
   151  H    1.000026
   152  H    1.000028
   153  H    1.000000
   154  H    1.000029
   155  H    1.000030
   156  H    1.000018
   157  H    0.999981
   158  H    0.999987
 Sum of Mulliken charges = 624.00000

 Dipole moment (field-independent basis, Debye):
    X=             -6.7427    Y=             -2.7932    Z=              7.0839  Tot=             10.1709
 Quadrupole moment (field-independent basis, Debye-Ang):
   XX=           -339.1809   YY=              1.9551   ZZ=              6.0593
   XY=            -64.0349   XZ=            175.8197   YZ=             -6.8861

 Normal termination of Gaussian 16 at Fri Oct 15 13:46:07 2021.
