 Gaussian 16, Revision A.03,
 Gaussian 16:  ES64L-G16RevA.03 25-Dec-2016

 --------------------------------------------------------
 #p PBE1PBE/Def2SVP td=(nstates=5) density=(transition=1)
 --------------------------------------------------------

 --------------------------------
 TDDFT excited states in gaussian
 --------------------------------
 Symbolic Z-matrix:
 Charge =  0 Multiplicity = 1

                         Standard orientation:
 ---------------------------------------------------------------------
 Center     Atomic      Atomic             Coordinates (Angstroms)
 Number     Number       Type             X           Y           Z
 ---------------------------------------------------------------------
      1         12           0      -21.157801   -0.458206   -0.024576
      2          6           0      -20.235889    2.708016   -1.175273
      3          6           0      -20.325374    0.664894    3.191033
      4          6           0      -21.463747   -3.573141    1.159720
      5          6           0      -20.915963   -1.633257   -3.250110
      6          7           0      -20.450989    1.545171    0.963511
      7          6           0      -20.108456    2.622433    0.208126
      8          6           0      -19.574098    3.794049    1.123871
      9          6           0      -19.373576    3.007054    2.515829
     10          6           0      -20.034556    1.648387    2.228865
     11          6           0      -17.832922    2.765330    2.697369
     12          6           0      -20.724367    4.860696    1.238721
     13          6           0      -20.495196    6.058505    2.200255
     14          1           0      -21.442557    6.666989    3.191016
     15          7           0      -21.118719   -1.252432    1.910131
     16          6           0      -20.798078   -0.650297    3.138265
     17          6           0      -20.888221   -1.633125    4.134681
     18          6           0      -21.395648   -2.810623    3.601893
     19          6           0      -21.352588   -2.577471    2.167753
     20          6           0      -20.649076   -1.275910    5.565135
     21          6           0      -21.757756   -4.171201    4.283721
     22          8           0      -22.217778   -5.146997    3.700504
     23          6           0      -21.769750   -4.339782    5.805488
     24          7           0      -21.064517   -2.322686   -0.928980
     25          6           0      -21.366951   -3.440850   -0.232213
     26          6           0      -21.609140   -4.676438   -1.121053
     27          6           0      -21.295377   -4.086946   -2.524199
     28          6           0      -21.195786   -2.592194   -2.278040
     29          6           0      -20.855627   -5.967728   -0.659093
     30          6           0      -22.255877   -4.464888   -3.684970
     31          6           0      -23.564278   -3.795344   -3.698435
     32          7           0      -20.774377    0.336751   -1.877144
     33          6           0      -20.710817   -0.224411   -3.062323
     34          6           0      -20.522789    0.764795   -4.128508
     35          6           0      -20.337006    1.961165   -3.364657
     36          6           0      -20.457690    1.652909   -2.023742
     37          6           0      -20.871273    0.672612   -5.540293
     38          6           0      -20.103766    3.387687   -3.506977
     39          8           0      -20.055472    4.084963   -4.494871
     40          6           0      -19.960773    3.886852   -2.064060
     41          6           0      -18.617581    4.588042   -1.835840
     42          8           0      -17.572075    4.015161   -1.670706
     43          8           0      -18.793616    5.948105   -1.926844
     44          6           0      -17.535720    6.698636   -1.707791
     45          1           0      -20.189022    1.063018    4.197834
     46          1           0      -21.777512   -4.561539    1.502641
     47          1           0      -21.034159   -2.223933   -4.160190
     48          1           0      -18.611860    4.181584    0.788217
     49          1           0      -19.781434    3.517236    3.389340
     50          1           0      -17.475606    1.750309    2.526688
     51          1           0      -17.542677    2.812775    3.747232
     52          1           0      -17.207656    3.427062    2.098334
     53          1           0      -21.632299    4.325939    1.516325
     54          1           0      -20.927024    5.216497    0.228192
     55          1           0      -20.097701    6.838321    1.549988
     56          1           0      -19.711058    5.649738    2.836346
     57          1           0      -20.343858   -0.245721    5.750524
     58          1           0      -20.005693   -2.043766    5.996912
     59          1           0      -21.634851   -1.375232    6.020372
     60          1           0      -20.781710   -4.280385    6.262072
     61          1           0      -22.309827   -5.217107    6.161821
     62          1           0      -22.393701   -3.535051    6.194778
     63          1           0      -22.676992   -4.775832   -0.928347
     64          1           0      -20.284472   -4.435819   -2.735067
     65          1           0      -20.711235   -5.970069    0.420792
     66          1           0      -19.874637   -5.999305   -1.133912
     67          1           0      -21.406346   -6.881294   -0.884116
     68          1           0      -22.380494   -5.534263   -3.517579
     69          1           0      -21.734738   -4.371122   -4.637911
     70          1           0      -23.466929   -2.818792   -4.172481
     71          1           0      -23.984948   -3.735306   -2.694865
     72          1           0      -24.282075   -4.317703   -4.331596
     73          1           0      -21.655117   -0.084021   -5.582180
     74          1           0      -20.141277    0.294125   -6.255977
     75          1           0      -21.196266    1.667389   -5.843246
     76          1           0      -20.780102    4.580405   -1.872045
     77          1           0      -17.548626    7.582415   -2.345376
     78          1           0      -16.623812    6.223944   -2.070613
     79          1           0      -17.464084    7.048531   -0.678477
     80         12           0       20.064198   -0.637404   -0.083121
     81          6           0       22.155978    2.060129   -0.371809
     82          6           0       17.948032    1.182698    1.763075
     83          6           0       18.237863   -3.442937    0.312654
     84          6           0       22.639606   -2.679236   -1.637943
     85          7           0       20.217939    1.369794    0.843919
     86          6           0       21.083728    2.332536    0.504660
     87          6           0       20.681026    3.732201    1.200692
     88          6           0       19.305503    3.324737    1.849454
     89          6           0       19.125080    1.830454    1.514255
     90          6           0       19.191736    3.691218    3.342002
     91          6           0       20.572017    4.920656    0.203694
     92          6           0       19.850266    6.223682    0.679206
     93          1           0       20.749342    7.457702    1.069270
     94          7           0       18.337868   -1.082613    0.954441
     95          6           0       17.565603   -0.202944    1.557565
     96          6           0       16.383876   -0.888521    2.058256
     97          6           0       16.465442   -2.281257    1.756746
     98          6           0       17.717424   -2.319940    0.969469
     99          6           0       15.304323   -0.265432    2.927724
    100          6           0       15.561796   -3.442166    2.158978
    101          8           0       15.941480   -4.605084    2.056554
    102          6           0       14.202618   -3.141413    2.686535
    103          7           0       20.424440   -2.775119   -0.557197
    104          6           0       19.497078   -3.698368   -0.332633
    105          6           0       19.863997   -5.051621   -0.963962
    106          6           0       21.133684   -4.677266   -1.724132
    107          6           0       21.425494   -3.304644   -1.244038
    108          6           0       20.010236   -6.265466   -0.034308
    109          6           0       21.070853   -4.956700   -3.204443
    110          6           0       22.086350   -6.021473   -3.753126
    111          7           0       21.930415   -0.398038   -0.882798
    112          6           0       22.840840   -1.278403   -1.558126
    113          6           0       23.977713   -0.553220   -2.081276
    114          6           0       23.689340    0.762518   -1.623371
    115          6           0       22.479909    0.786051   -0.917469
    116          6           0       25.077112   -0.964886   -2.995692
    117          6           0       24.167914    2.106873   -1.824847
    118          8           0       25.025314    2.618977   -2.560012
    119          6           0       23.329102    3.011767   -0.957425
    120          6           0       24.190415    3.476656    0.237524
    121          8           0       24.969362    2.794090    0.920438
    122          8           0       23.940824    4.802694    0.432131
    123          6           0       24.692241    5.499983    1.523509
    124          1           0       17.123878    1.692668    2.266243
    125          1           0       17.821863   -4.421951    0.559508
    126          1           0       23.302046   -3.327088   -2.214821
    127          1           0       21.452227    3.874975    1.956767
    128          1           0       18.519494    3.841774    1.299079
    129          1           0       18.194492    4.104100    3.490154
    130          1           0       19.897762    4.471890    3.625370
    131          1           0       19.342463    2.813753    3.970958
    132          1           0       19.899759    4.570210   -0.579460
    133          1           0       21.565984    5.220484   -0.128127
    134          1           0       19.361932    5.984852    1.624536
    135          1           0       19.185155    6.562618   -0.114308
    136          1           0       15.501322    0.790904    3.110471
    137          1           0       15.265956   -0.780532    3.887261
    138          1           0       14.317454   -0.353611    2.475170
    139          1           0       13.770614   -2.438934    1.973246
    140          1           0       14.029932   -2.708003    3.671174
    141          1           0       13.568388   -4.025132    2.747624
    142          1           0       19.078999   -5.305031   -1.675649
    143          1           0       21.931475   -5.319594   -1.351667
    144          1           0       19.568146   -7.084459   -0.601138
    145          1           0       19.548052   -6.066852    0.932556
    146          1           0       21.034156   -6.474079    0.275646
    147          1           0       21.383669   -4.015356   -3.655118
    148          1           0       20.087297   -5.276039   -3.547823
    149          1           0       22.718569   -6.385378   -2.942767
    150          1           0       22.723973   -5.514284   -4.477862
    151          1           0       21.644624   -6.841842   -4.318969
    152          1           0       24.877562   -1.957216   -3.399259
    153          1           0       25.947062   -1.094644   -2.352947
    154          1           0       25.103212   -0.190674   -3.763874
    155          1           0       23.064280    3.839583   -1.615490
    156          1           0       24.723818    4.970944    2.476304
    157          1           0       24.370864    6.524618    1.707494
    158          1           0       25.730108    5.517516    1.191341
 ---------------------------------------------------------------------

 SCF Done:  E(RPBE1PBE) =  -4067.39306440     A.U. after   16 cycles

 Excitation energies and oscillator strengths:

 Excited State   1:      Singlet-A      1.8791 eV  659.82 nm  f=0.3729  <S**2>=0.000
     309 -> 315        0.16649
     311 -> 313        0.69022
     311 <- 313       -0.10558
 This state for optimization and/or second-order correction.
 Total Energy, E(TD-HF/TD-DFT) =  -4067.32401047
 Copying the excited state density for this state as the 1-particle RhoCI density.

 Excited State   2:      Singlet-A      1.8847 eV  657.85 nm  f=0.3948  <S**2>=0.000
     310 -> 316       -0.17959
     312 -> 314        0.69082
     312 <- 314       -0.10347

 Excited State   3:      Singlet-A      1.9970 eV  620.85 nm  f=0.0000  <S**2>=0.000
     312 -> 313        0.70711

 Excited State   4:      Singlet-A      2.0355 eV  609.11 nm  f=0.0000  <S**2>=0.000
     311 -> 314        0.70711

 Excited State   5:      Singlet-A      2.2484 eV  551.44 nm  f=0.1076  <S**2>=0.000
     310 -> 314        0.65565
     312 -> 316        0.25370

 The electronic state is 1-A.
 Alpha  occ. eigenvalues --  -46.92582 -46.92159 -19.26496 -19.26295 -19.20673
 Alpha  occ. eigenvalues --  -19.19728 -19.19664 -19.19556 -19.19150 -19.18001
 Alpha  occ. eigenvalues --  -14.41598 -14.41447 -14.41378 -14.40783 -14.39634
 Alpha  occ. eigenvalues --  -14.38962 -14.38877 -14.38811 -10.36841 -10.36632
 Alpha  occ. eigenvalues --  -10.33235 -10.33149 -10.31742 -10.30536 -10.29410
 Alpha  occ. eigenvalues --  -10.29409 -10.29101 -10.28716 -10.28648 -10.28529
 Alpha  occ. eigenvalues --  -10.28263 -10.28248 -10.28102 -10.27912 -10.27872
 Alpha  occ. eigenvalues --  -10.27847 -10.27804 -10.27796 -10.27533 -10.27183
 Alpha  occ. eigenvalues --  -10.26873 -10.26489 -10.26454 -10.26432 -10.26280
 Alpha  occ. eigenvalues --  -10.26235 -10.26201 -10.26141 -10.25825 -10.25767
 Alpha  occ. eigenvalues --  -10.25655 -10.25636 -10.25592 -10.25581 -10.25514
 Alpha  occ. eigenvalues --  -10.25426 -10.25297 -10.25185 -10.25123 -10.25003
 Alpha  occ. eigenvalues --  -10.24950 -10.24830 -10.24700 -10.24595 -10.24504
 Alpha  occ. eigenvalues --  -10.24445 -10.24359 -10.24309 -10.24048 -10.23957
 Alpha  occ. eigenvalues --  -10.23898 -10.23886 -10.23882 -10.23771 -10.23649
 Alpha  occ. eigenvalues --  -10.23629 -10.23558 -10.23533 -10.23320 -10.23158
 Alpha  occ. eigenvalues --  -10.23144 -10.23115 -10.22919 -10.22619 -10.22200
 Alpha  occ. eigenvalues --  -10.22189  -3.14688  -3.14299  -1.87519  -1.87126
 Alpha  occ. eigenvalues --   -1.87056  -1.86923  -1.86688  -1.86509  -1.11639
 Alpha  occ. eigenvalues --   -1.10349  -1.05151  -1.05045  -1.05037  -1.03651
 Alpha  occ. eigenvalues --   -1.02751  -1.01377  -1.00334  -0.99812  -0.99042
 Alpha  occ. eigenvalues --   -0.98567  -0.98390  -0.98017  -0.97675  -0.97055
 Alpha  occ. eigenvalues --   -0.88291  -0.85669  -0.84227  -0.83772  -0.83000
 Alpha  occ. eigenvalues --   -0.82832  -0.82484  -0.82477  -0.81781  -0.81765
 Alpha  occ. eigenvalues --   -0.81585  -0.81470  -0.81310  -0.80670  -0.78467
 Alpha  occ. eigenvalues --   -0.78340  -0.78030  -0.77599  -0.76715  -0.76502
 Alpha  occ. eigenvalues --   -0.76394  -0.75755  -0.75398  -0.75197  -0.74729
 Alpha  occ. eigenvalues --   -0.74421  -0.72863  -0.72774  -0.71964  -0.71838
 Alpha  occ. eigenvalues --   -0.71039  -0.70982  -0.70498  -0.70397  -0.69702
 Alpha  occ. eigenvalues --   -0.69209  -0.67105  -0.67025  -0.66243  -0.66145
 Alpha  occ. eigenvalues --   -0.64427  -0.63780  -0.63659  -0.63452  -0.62830
 Alpha  occ. eigenvalues --   -0.62212  -0.61988  -0.61391  -0.60295  -0.59880
 Alpha  occ. eigenvalues --   -0.59464  -0.59251  -0.58991  -0.58920  -0.58629
 Alpha  occ. eigenvalues --   -0.58433  -0.57211  -0.57145  -0.55235  -0.54575
 Alpha  occ. eigenvalues --   -0.54235  -0.54077  -0.53958  -0.53476  -0.53263
 Alpha  occ. eigenvalues --   -0.53090  -0.52931  -0.52618  -0.51972  -0.51879
 Alpha  occ. eigenvalues --   -0.51099  -0.50898  -0.50235  -0.50229  -0.50172
 Alpha  occ. eigenvalues --   -0.49823  -0.49666  -0.49256  -0.49115  -0.48645
 Alpha  occ. eigenvalues --   -0.48591  -0.48309  -0.48003  -0.47850  -0.47609
 Alpha  occ. eigenvalues --   -0.47334  -0.47146  -0.47088  -0.46867  -0.46774
 Alpha  occ. eigenvalues --   -0.46772  -0.46378  -0.45763  -0.45751  -0.45665
 Alpha  occ. eigenvalues --   -0.45651  -0.45409  -0.45332  -0.45022  -0.44755
 Alpha  occ. eigenvalues --   -0.44579  -0.44573  -0.44382  -0.44218  -0.44206
 Alpha  occ. eigenvalues --   -0.44082  -0.43966  -0.43853  -0.43610  -0.43570
 Alpha  occ. eigenvalues --   -0.43561  -0.43484  -0.43199  -0.42986  -0.42859
 Alpha  occ. eigenvalues --   -0.42579  -0.42462  -0.42291  -0.42204  -0.41949
 Alpha  occ. eigenvalues --   -0.41818  -0.41468  -0.41373  -0.41174  -0.40904
 Alpha  occ. eigenvalues --   -0.40873  -0.40769  -0.40671  -0.40603  -0.40147
 Alpha  occ. eigenvalues --   -0.39879  -0.39780  -0.39711  -0.39558  -0.39492
 Alpha  occ. eigenvalues --   -0.39275  -0.39229  -0.39139  -0.39094  -0.38884
 Alpha  occ. eigenvalues --   -0.38857  -0.38802  -0.38683  -0.38672  -0.38478
 Alpha  occ. eigenvalues --   -0.38369  -0.38214  -0.38009  -0.37766  -0.37760
 Alpha  occ. eigenvalues --   -0.37678  -0.37422  -0.37300  -0.37194  -0.37007
 Alpha  occ. eigenvalues --   -0.36849  -0.36821  -0.36799  -0.36740  -0.36675
 Alpha  occ. eigenvalues --   -0.36382  -0.35954  -0.35684  -0.35632  -0.35395
 Alpha  occ. eigenvalues --   -0.35178  -0.34592  -0.34224  -0.34009  -0.33889
 Alpha  occ. eigenvalues --   -0.33440  -0.33237  -0.32875  -0.32853  -0.32727
 Alpha  occ. eigenvalues --   -0.32297  -0.32091  -0.31843  -0.31668  -0.31448
 Alpha  occ. eigenvalues --   -0.31208  -0.31022  -0.29847  -0.29539  -0.29503
 Alpha  occ. eigenvalues --   -0.29138  -0.28768  -0.28677  -0.26982  -0.26781
 Alpha  occ. eigenvalues --   -0.26628  -0.26144  -0.25923  -0.25782  -0.25571
 Alpha  occ. eigenvalues --   -0.25366  -0.25023  -0.24795  -0.20862  -0.20756
 Alpha  occ. eigenvalues --   -0.18733  -0.18694
 Alpha virt. eigenvalues --   -0.11032  -0.10931  -0.05336  -0.04884  -0.03820
 Alpha virt. eigenvalues --   -0.03589  -0.02143  -0.01879  -0.00843  -0.00609
 Alpha virt. eigenvalues --    0.00511   0.00783   0.00946   0.01305   0.02057

 Mulliken charges:
               1
     1  Mg  11.999929
     2  C    6.000234
     3  C    5.999464
     4  C    5.999535
     5  C    6.000621
     6  N    6.999953
     7  C    5.999294
     8  C    6.000321
     9  C    5.999606
    10  C    6.001396
    11  C    5.999904
    12  C    6.000101
    13  C    6.000017
    14  H    0.999652
    15  N    6.999818
    16  C    6.001339
    17  C    6.000771
    18  C    6.000667
    19  C    6.000873
    20  C    5.999909
    21  C    6.000527
    22  O    8.000962
    23  C    5.999826
    24  N    7.000109
    25  C    6.001100
    26  C    5.999823
    27  C    6.000377
    28  C    5.998720
    29  C    5.999880
    30  C    6.000092
    31  C    6.000193
    32  N    6.999844
    33  C    5.998781
    34  C    5.998626
    35  C    6.000089
    36  C    5.999000
    37  C    6.000188
    38  C    5.999389
    39  O    7.999051
    40  C    6.000038
    41  C    5.999852
    42  O    7.999942
    43  O    7.999873
    44  C    6.000176
    45  H    1.000253
    46  H    1.000298
    47  H    0.999857
    48  H    1.000002
    49  H    0.999996
    50  H    1.000028
    51  H    1.000035
    52  H    1.000527
    53  H    0.999743
    54  H    1.000282
    55  H    1.000087
    56  H    0.999850
    57  H    1.000590
    58  H    1.000634
    59  H    1.000513
    60  H    1.000378
    61  H    1.000467
    62  H    1.000159
    63  H    0.999876
    64  H    0.999875
    65  H    0.999711
    66  H    1.000373
    67  H    1.000200
    68  H    0.999700
    69  H    1.000147
    70  H    1.000288
    71  H    0.999620
    72  H    0.999767
    73  H    0.999228
    74  H    0.999101
    75  H    0.999369
    76  H    0.999663
    77  H    0.999829
    78  H    0.999947
    79  H    0.999747
    80  Mg  12.000879
    81  C    5.984349
    82  C    6.022509
    83  C    6.003667
    84  C    5.991319
    85  N    6.999977
    86  C    6.030249
    87  C    5.993135
    88  C    6.009429
    89  C    5.967180
    90  C    6.001323
    91  C    5.994617
    92  C    6.001715
    93  H    0.999610
    94  N    7.001077
    95  C    5.959466
    96  C    5.979364
    97  C    5.984693
    98  C    5.974793
    99  C    6.003193
   100  C    5.986433
   101  O    7.974990
   102  C    6.006535
   103  N    6.997999
   104  C    5.968270
   105  C    6.010529
   106  C    5.988273
   107  C    6.033230
   108  C    6.001772
   109  C    6.000091
   110  C    5.999658
   111  N    6.999684
   112  C    6.035584
   113  C    6.025805
   114  C    6.007821
   115  C    6.024818
   116  C    5.999097
   117  C    6.015777
   118  O    8.033989
   119  C    5.997601
   120  C    6.005756
   121  O    8.002417
   122  O    8.001997
   123  C    5.999061
   124  H    0.995596
   125  H    0.992088
   126  H    1.011195
   127  H    0.999683
   128  H    0.998948
   129  H    1.001440
   130  H    0.990204
   131  H    1.002060
   132  H    1.003588
   133  H    0.994384
   134  H    1.006397
   135  H    1.001890
   136  H    0.980585
   137  H    0.982416
   138  H    0.981835
   139  H    0.994813
   140  H    0.990747
   141  H    0.985714
   142  H    0.999990
   143  H    0.999810
   144  H    0.995513
   145  H    1.006548
   146  H    0.990226
   147  H    0.994522
   148  H    1.010998
   149  H    1.001744
   150  H    0.996882
   151  H    1.005229
   152  H    1.016362
   153  H    1.016341
   154  H    1.011756
   155  H    1.008983
   156  H    1.004773
   157  H    1.005839
   158  H    1.001174
 Sum of Mulliken charges = 624.00000

 Dipole moment (field-independent basis, Debye):
    X=              8.9688    Y=              2.4464    Z=             -4.2709  Tot=             10.2306
 Quadrupole moment (field-independent basis, Debye-Ang):
   XX=            361.8463   YY=             -1.0870   ZZ=              0.2062
   XY=             49.9118   XZ=            -98.5990   YZ=              4.6188

 Normal termination of Gaussian 16 at Thu Oct 14 01:32:20 2021.
