 Gaussian 16, Revision A.03,
 Gaussian 16:  ES64L-G16RevA.03 25-Dec-2016

 --------------------------------------------------------
 #p PBE1PBE/Def2SVP td=(nstates=5) density=(transition=1)
 --------------------------------------------------------

 --------------------------------
 TDDFT excited states in gaussian
 --------------------------------
 Symbolic Z-matrix:
 Charge =  0 Multiplicity = 1

                         Standard orientation:
 ---------------------------------------------------------------------
 Center     Atomic      Atomic             Coordinates (Angstroms)
 Number     Number       Type             X           Y           Z
 ---------------------------------------------------------------------
      1         12           0       -9.131220    0.308658    0.219500
      2          6           0       -7.538863   -2.588554   -1.256622
      3          6           0      -11.179604   -1.779222    1.591456
      4          6           0      -10.599043    3.078619    1.237024
      5          6           0       -7.267322    2.471315   -2.029599
      6          7           0       -9.232905   -1.986267    0.247172
      7          6           0       -8.529091   -2.980120   -0.400709
      8          6           0       -9.094665   -4.313910   -0.069038
      9          6           0      -10.524699   -3.986678    0.432507
     10          6           0      -10.343465   -2.482830    0.746495
     11          6           0      -11.634026   -4.198667   -0.620940
     12          6           0       -8.278611   -4.956212    1.093903
     13          6           0       -7.918819   -6.484679    0.939167
     14          1           0       -6.735428   -7.107645    1.781501
     15          7           0      -10.735157    0.579757    1.370102
     16          6           0      -11.403398   -0.382540    1.948139
     17          6           0      -12.390238    0.216380    2.826844
     18          6           0      -12.100985    1.600700    2.785916
     19          6           0      -11.125196    1.792464    1.747496
     20          6           0      -13.322601   -0.659355    3.683462
     21          6           0      -12.746137    2.671226    3.621235
     22          8           0      -12.438426    3.816119    3.473257
     23          6           0      -13.696931    2.277152    4.704093
     24          7           0       -9.109343    2.498143   -0.580747
     25          6           0       -9.729716    3.381051    0.199155
     26          6           0       -9.307126    4.772869   -0.087826
     27          6           0       -8.359056    4.541657   -1.306888
     28          6           0       -8.201588    3.044857   -1.357053
     29          6           0      -10.427567    5.856392   -0.284901
     30          6           0       -7.004719    5.333844   -1.133375
     31          6           0       -6.746844    6.612988   -1.977608
     32          7           0       -7.759104    0.099171   -1.270670
     33          6           0       -7.019035    1.015215   -2.051190
     34          6           0       -6.065352    0.275501   -2.903460
     35          6           0       -6.242722   -1.066947   -2.596527
     36          6           0       -7.269039   -1.161145   -1.671919
     37          6           0       -5.188901    0.903135   -4.014314
     38          6           0       -5.724797   -2.428041   -2.948872
     39          8           0       -4.844108   -2.827625   -3.673359
     40          6           0       -6.675218   -3.497567   -2.210256
     41          6           0       -5.927406   -4.543598   -1.615272
     42          8           0       -5.550919   -4.494413   -0.435916
     43          8           0       -5.594213   -5.619520   -2.432202
     44          6           0       -4.983608   -6.836162   -1.813812
     45          1           0      -11.907094   -2.372291    2.148445
     46          1           0      -11.041111    4.000077    1.621412
     47          1           0       -6.692931    3.107609   -2.704627
     48          1           0       -9.209992   -4.904604   -0.978194
     49          1           0      -10.872738   -4.539879    1.304607
     50          1           0      -12.353582   -4.940739   -0.273732
     51          1           0      -11.144447   -4.548629   -1.529276
     52          1           0      -12.173057   -3.293671   -0.902573
     53          1           0       -8.913637   -4.840493    1.972418
     54          1           0       -7.396141   -4.328813    1.217626
     55          1           0       -7.751684   -6.676656   -0.120350
     56          1           0       -8.849387   -6.968407    1.238447
     57          1           0      -13.073562   -0.500910    4.733539
     58          1           0      -13.332362   -1.722243    3.444514
     59          1           0      -14.341554   -0.275840    3.639488
     60          1           0      -13.223223    1.668205    5.473637
     61          1           0      -14.518715    1.619433    4.421154
     62          1           0      -14.035989    3.178258    5.215731
     63          1           0       -8.698997    5.110223    0.751513
     64          1           0       -8.888629    4.792163   -2.226328
     65          1           0      -11.370582    5.364106   -0.049534
     66          1           0      -10.446040    6.390990   -1.235275
     67          1           0      -10.250691    6.664022    0.425615
     68          1           0       -6.175271    4.672146   -1.384406
     69          1           0       -6.866330    5.404695   -0.054526
     70          1           0       -6.355976    7.404983   -1.339016
     71          1           0       -7.673506    6.920951   -2.462219
     72          1           0       -5.992397    6.423337   -2.742058
     73          1           0       -4.925679    1.911789   -3.697069
     74          1           0       -5.792586    1.034005   -4.912689
     75          1           0       -4.292362    0.314854   -4.211245
     76          1           0       -7.346497   -3.918636   -2.958136
     77          1           0       -5.671410   -7.305248   -1.108840
     78          1           0       -3.959276   -6.650693   -1.492867
     79          1           0       -4.987234   -7.606966   -2.584390
     80         12           0        8.436506    0.954394    0.246048
     81          6           0       10.673389   -1.571048    0.939164
     82          6           0        5.859932   -1.515376    0.073469
     83          6           0        6.315995    3.242724   -0.768671
     84          6           0       11.016110    3.301517    0.260142
     85          7           0        8.368766   -1.269154    0.500681
     86          6           0        9.389839   -2.073365    0.810889
     87          6           0        8.846303   -3.525081    1.015243
     88          6           0        7.309749   -3.452414    0.585162
     89          6           0        7.159312   -1.944325    0.306846
     90          6           0        6.920446   -4.153966   -0.701853
     91          6           0        9.098007   -4.117637    2.409939
     92          6           0        9.740912   -5.491472    2.320802
     93          1           0        9.551408   -6.529105    3.436832
     94          7           0        6.357776    0.868952   -0.194363
     95          6           0        5.479183   -0.175467   -0.165841
     96          6           0        4.174886    0.219741   -0.461694
     97          6           0        4.263164    1.604068   -0.842718
     98          6           0        5.697983    1.980950   -0.596117
     99          6           0        2.972402   -0.712407   -0.429982
    100          6           0        3.184826    2.508977   -1.416019
    101          8           0        3.517322    3.632981   -1.839588
    102          6           0        1.794258    2.052494   -1.592909
    103          7           0        8.661975    2.937837   -0.142716
    104          6           0        7.609231    3.752471   -0.505871
    105          6           0        8.002281    5.254264   -0.764961
    106          6           0        9.463414    5.246263   -0.142299
    107          6           0        9.752277    3.739410   -0.013947
    108          6           0        7.990226    5.872148   -2.218750
    109          6           0        9.754505    6.162314    1.131854
    110          6           0        9.253102    5.624676    2.446102
    111          7           0       10.422063    0.929996    0.390785
    112          6           0       11.382589    1.923462    0.383701
    113          6           0       12.676366    1.416791    0.596782
    114          6           0       12.419573    0.064975    0.853016
    115          6           0       11.026757   -0.209414    0.724703
    116          6           0       13.858344    2.286919    0.665738
    117          6           0       13.136655   -1.130879    1.077020
    118          8           0       14.359623   -1.283921    1.095776
    119          6           0       12.032346   -2.307670    1.180181
    120          6           0       12.325175   -3.322003    0.182886
    121          8           0       12.136924   -3.242900   -1.009549
    122          8           0       12.952488   -4.350422    0.740244
    123          6           0       13.439420   -5.405132   -0.096591
    124          1           0        5.090228   -2.282769   -0.027843
    125          1           0        5.734214    4.104277   -1.101939
    126          1           0       11.793684    4.068247    0.252832
    127          1           0        9.403235   -4.046250    0.237236
    128          1           0        6.768961   -3.982749    1.369793
    129          1           0        7.719828   -4.736968   -1.160217
    130          1           0        6.642090   -3.422082   -1.459642
    131          1           0        5.993550   -4.709013   -0.554208
    132          1           0        8.216608   -4.183924    3.048020
    133          1           0        9.755589   -3.431825    2.943603
    134          1           0       10.817155   -5.317076    2.347293
    135          1           0        9.393788   -5.922820    1.382086
    136          1           0        3.209844   -1.660197    0.053259
    137          1           0        2.732079   -1.007548   -1.451609
    138          1           0        2.091147   -0.203484   -0.041275
    139          1           0        1.278276    2.660379   -2.336961
    140          1           0        1.283398    2.223602   -0.644855
    141          1           0        1.774537    1.008020   -1.903073
    142          1           0        7.475660    5.940519   -0.101001
    143          1           0       10.143602    5.708613   -0.856527
    144          1           0        7.657147    5.094744   -2.905223
    145          1           0        9.020251    6.004414   -2.552269
    146          1           0        7.430740    6.793059   -2.385595
    147          1           0        9.194099    7.082925    0.970845
    148          1           0       10.793482    6.475932    1.225756
    149          1           0        9.941139    5.978621    3.213051
    150          1           0        9.074790    4.559372    2.587043
    151          1           0        8.261975    6.053743    2.593386
    152          1           0       13.738835    3.303684    1.039053
    153          1           0       14.508471    2.281912   -0.208308
    154          1           0       14.469726    1.740983    1.383807
    155          1           0       12.104669   -2.742479    2.176896
    156          1           0       12.696535   -6.188441   -0.251376
    157          1           0       14.266023   -5.873753    0.437155
    158          1           0       13.726475   -5.003967   -1.068700
 ---------------------------------------------------------------------

 SCF Done:  E(RPBE1PBE) =  -4067.36153777     A.U. after   16 cycles

 Excitation energies and oscillator strengths:

 Excited State   1:      Singlet-A      1.7852 eV  694.51 nm  f=0.0000  <S**2>=0.000
     312 -> 313        0.70707
 This state for optimization and/or second-order correction.
 Total Energy, E(TD-HF/TD-DFT) =  -4067.29593306
 Copying the excited state density for this state as the 1-particle RhoCI density.

 Excited State   2:      Singlet-A      1.8626 eV  665.63 nm  f=0.6283  <S**2>=0.000
     309 -> 315       -0.14240
     311 -> 313        0.34516
     312 -> 314        0.60256

 Excited State   3:      Singlet-A      1.8863 eV  657.31 nm  f=0.1663  <S**2>=0.000
     310 -> 316        0.13992
     311 -> 313        0.60420
     312 -> 314       -0.34280

 Excited State   4:      Singlet-A      1.9590 eV  632.90 nm  f=0.0000  <S**2>=0.000
     311 -> 314        0.70702

 Excited State   5:      Singlet-A      2.2032 eV  562.74 nm  f=0.1764  <S**2>=0.000
     310 -> 313        0.67869
     311 -> 316       -0.19087

 The electronic state is 1-A.
 Alpha  occ. eigenvalues --  -46.93002 -46.90914 -19.25266 -19.24896 -19.20285
 Alpha  occ. eigenvalues --  -19.19371 -19.19027 -19.18739 -19.18645 -19.18189
 Alpha  occ. eigenvalues --  -14.41648 -14.41494 -14.41355 -14.39913 -14.39846
 Alpha  occ. eigenvalues --  -14.39393 -14.39130 -14.38489 -10.35748 -10.35064
 Alpha  occ. eigenvalues --  -10.33541 -10.32162 -10.31701 -10.31526 -10.29130
 Alpha  occ. eigenvalues --  -10.29046 -10.28728 -10.28708 -10.28676 -10.28671
 Alpha  occ. eigenvalues --  -10.28274 -10.28190 -10.28173 -10.28106 -10.28095
 Alpha  occ. eigenvalues --  -10.27758 -10.27678 -10.27640 -10.26816 -10.26816
 Alpha  occ. eigenvalues --  -10.26784 -10.26663 -10.26609 -10.26602 -10.26240
 Alpha  occ. eigenvalues --  -10.26186 -10.26106 -10.25973 -10.25948 -10.25926
 Alpha  occ. eigenvalues --  -10.25828 -10.25734 -10.25650 -10.25607 -10.25586
 Alpha  occ. eigenvalues --  -10.25478 -10.25326 -10.25299 -10.24975 -10.24842
 Alpha  occ. eigenvalues --  -10.24806 -10.24740 -10.24707 -10.24679 -10.24622
 Alpha  occ. eigenvalues --  -10.24565 -10.24315 -10.24091 -10.23990 -10.23894
 Alpha  occ. eigenvalues --  -10.23860 -10.23779 -10.23736 -10.23641 -10.23603
 Alpha  occ. eigenvalues --  -10.23600 -10.23517 -10.23417 -10.23324 -10.23293
 Alpha  occ. eigenvalues --  -10.23219 -10.23102 -10.23070 -10.22831 -10.22267
 Alpha  occ. eigenvalues --  -10.22252  -3.15105  -3.13273  -1.87931  -1.87485
 Alpha  occ. eigenvalues --   -1.87330  -1.86114  -1.85666  -1.85501  -1.12541
 Alpha  occ. eigenvalues --   -1.09191  -1.06842  -1.06030  -1.03482  -1.02932
 Alpha  occ. eigenvalues --   -1.02415  -1.01065  -1.00728  -0.99773  -0.99647
 Alpha  occ. eigenvalues --   -0.99100  -0.98169  -0.97750  -0.97020  -0.96104
 Alpha  occ. eigenvalues --   -0.86265  -0.85891  -0.83713  -0.83468  -0.83405
 Alpha  occ. eigenvalues --   -0.82841  -0.82449  -0.82430  -0.82137  -0.81935
 Alpha  occ. eigenvalues --   -0.81746  -0.81713  -0.80854  -0.79908  -0.78837
 Alpha  occ. eigenvalues --   -0.78670  -0.77968  -0.77549  -0.77071  -0.76481
 Alpha  occ. eigenvalues --   -0.76257  -0.76190  -0.75499  -0.75377  -0.74884
 Alpha  occ. eigenvalues --   -0.74780  -0.73094  -0.72347  -0.71652  -0.71484
 Alpha  occ. eigenvalues --   -0.71227  -0.71042  -0.70683  -0.70106  -0.69894
 Alpha  occ. eigenvalues --   -0.69442  -0.67734  -0.67543  -0.65704  -0.65696
 Alpha  occ. eigenvalues --   -0.63848  -0.63665  -0.63363  -0.63119  -0.62567
 Alpha  occ. eigenvalues --   -0.61975  -0.61865  -0.61280  -0.60653  -0.60220
 Alpha  occ. eigenvalues --   -0.59773  -0.59668  -0.59229  -0.58997  -0.58966
 Alpha  occ. eigenvalues --   -0.58734  -0.56742  -0.56074  -0.55816  -0.54860
 Alpha  occ. eigenvalues --   -0.54733  -0.54397  -0.53834  -0.53387  -0.52981
 Alpha  occ. eigenvalues --   -0.52740  -0.52656  -0.52384  -0.52029  -0.51980
 Alpha  occ. eigenvalues --   -0.51205  -0.50931  -0.50517  -0.50444  -0.50297
 Alpha  occ. eigenvalues --   -0.49436  -0.49013  -0.48766  -0.48738  -0.48611
 Alpha  occ. eigenvalues --   -0.48124  -0.47928  -0.47608  -0.47546  -0.47305
 Alpha  occ. eigenvalues --   -0.47161  -0.47124  -0.46839  -0.46747  -0.46544
 Alpha  occ. eigenvalues --   -0.46531  -0.46464  -0.46175  -0.46115  -0.45698
 Alpha  occ. eigenvalues --   -0.45107  -0.45077  -0.44820  -0.44763  -0.44610
 Alpha  occ. eigenvalues --   -0.44516  -0.44464  -0.44276  -0.44182  -0.44098
 Alpha  occ. eigenvalues --   -0.43988  -0.43866  -0.43729  -0.43705  -0.43546
 Alpha  occ. eigenvalues --   -0.43538  -0.43371  -0.43173  -0.42892  -0.42681
 Alpha  occ. eigenvalues --   -0.42633  -0.42525  -0.42400  -0.42251  -0.42248
 Alpha  occ. eigenvalues --   -0.41791  -0.41423  -0.41304  -0.41107  -0.41038
 Alpha  occ. eigenvalues --   -0.40955  -0.40768  -0.40624  -0.40542  -0.40414
 Alpha  occ. eigenvalues --   -0.40041  -0.40015  -0.39836  -0.39796  -0.39706
 Alpha  occ. eigenvalues --   -0.39557  -0.39525  -0.39225  -0.39149  -0.39043
 Alpha  occ. eigenvalues --   -0.39012  -0.38496  -0.38439  -0.38343  -0.38234
 Alpha  occ. eigenvalues --   -0.38124  -0.38068  -0.37865  -0.37832  -0.37463
 Alpha  occ. eigenvalues --   -0.37319  -0.37313  -0.37215  -0.36887  -0.36705
 Alpha  occ. eigenvalues --   -0.36383  -0.36181  -0.36165  -0.36067  -0.35907
 Alpha  occ. eigenvalues --   -0.35756  -0.35660  -0.35647  -0.35457  -0.35265
 Alpha  occ. eigenvalues --   -0.35211  -0.34999  -0.34941  -0.33961  -0.33655
 Alpha  occ. eigenvalues --   -0.33460  -0.32940  -0.32794  -0.32564  -0.32242
 Alpha  occ. eigenvalues --   -0.32034  -0.31713  -0.31444  -0.31359  -0.31179
 Alpha  occ. eigenvalues --   -0.31013  -0.30924  -0.29255  -0.28955  -0.28685
 Alpha  occ. eigenvalues --   -0.28525  -0.28305  -0.27938  -0.27413  -0.26915
 Alpha  occ. eigenvalues --   -0.26740  -0.26294  -0.26214  -0.25689  -0.25683
 Alpha  occ. eigenvalues --   -0.25288  -0.25201  -0.25093  -0.20907  -0.20698
 Alpha  occ. eigenvalues --   -0.19294  -0.18903
 Alpha virt. eigenvalues --   -0.11598  -0.11303  -0.04843  -0.04193  -0.03511
 Alpha virt. eigenvalues --   -0.03505  -0.01978  -0.01715  -0.00665  -0.00279
 Alpha virt. eigenvalues --    0.00428   0.00839   0.01400   0.01949   0.02032

 Mulliken charges:
               1
     1  Mg  12.000000
     2  C    6.000000
     3  C    6.000000
     4  C    6.000000
     5  C    6.000000
     6  N    7.000000
     7  C    6.000000
     8  C    6.000000
     9  C    6.000000
    10  C    6.000000
    11  C    6.000000
    12  C    6.000000
    13  C    6.000000
    14  H    1.000000
    15  N    7.000000
    16  C    6.000000
    17  C    6.000000
    18  C    6.000000
    19  C    6.000000
    20  C    6.000000
    21  C    6.000000
    22  O    8.000000
    23  C    6.000000
    24  N    7.000000
    25  C    6.000000
    26  C    6.000000
    27  C    6.000000
    28  C    6.000000
    29  C    6.000000
    30  C    6.000000
    31  C    6.000000
    32  N    7.000000
    33  C    6.000000
    34  C    6.000000
    35  C    6.000000
    36  C    6.000000
    37  C    6.000000
    38  C    6.000000
    39  O    8.000000
    40  C    6.000000
    41  C    6.000000
    42  O    8.000000
    43  O    8.000000
    44  C    6.000000
    45  H    1.000000
    46  H    1.000000
    47  H    1.000000
    48  H    1.000000
    49  H    1.000000
    50  H    1.000000
    51  H    1.000000
    52  H    1.000000
    53  H    1.000000
    54  H    1.000000
    55  H    1.000000
    56  H    1.000000
    57  H    1.000000
    58  H    1.000000
    59  H    1.000000
    60  H    1.000000
    61  H    1.000000
    62  H    1.000000
    63  H    1.000000
    64  H    1.000000
    65  H    1.000000
    66  H    1.000000
    67  H    1.000000
    68  H    1.000000
    69  H    1.000000
    70  H    1.000000
    71  H    1.000000
    72  H    1.000000
    73  H    1.000000
    74  H    1.000000
    75  H    1.000000
    76  H    1.000000
    77  H    1.000000
    78  H    1.000000
    79  H    1.000000
    80  Mg  12.000000
    81  C    6.000000
    82  C    6.000000
    83  C    6.000001
    84  C    6.000000
    85  N    7.000000
    86  C    6.000001
    87  C    6.000000
    88  C    6.000000
    89  C    6.000000
    90  C    6.000000
    91  C    6.000000
    92  C    6.000000
    93  H    1.000000
    94  N    7.000000
    95  C    5.999999
    96  C    5.999999
    97  C    5.999999
    98  C    6.000000
    99  C    6.000000
   100  C    5.999999
   101  O    7.999999
   102  C    6.000000
   103  N    7.000000
   104  C    5.999999
   105  C    6.000000
   106  C    6.000000
   107  C    6.000001
   108  C    6.000000
   109  C    6.000000
   110  C    6.000000
   111  N    7.000000
   112  C    6.000001
   113  C    6.000001
   114  C    6.000000
   115  C    6.000001
   116  C    6.000000
   117  C    6.000001
   118  O    8.000001
   119  C    6.000000
   120  C    6.000000
   121  O    8.000000
   122  O    8.000000
   123  C    6.000000
   124  H    1.000000
   125  H    1.000000
   126  H    1.000000
   127  H    1.000000
   128  H    1.000000
   129  H    1.000000
   130  H    1.000000
   131  H    1.000000
   132  H    1.000000
   133  H    1.000000
   134  H    1.000000
   135  H    1.000000
   136  H    0.999999
   137  H    0.999999
   138  H    0.999999
   139  H    0.999998
   140  H    1.000000
   141  H    1.000000
   142  H    1.000000
   143  H    1.000000
   144  H    1.000000
   145  H    1.000000
   146  H    1.000000
   147  H    1.000000
   148  H    1.000000
   149  H    1.000000
   150  H    1.000000
   151  H    1.000000
   152  H    1.000001
   153  H    1.000001
   154  H    1.000000
   155  H    1.000000
   156  H    1.000000
   157  H    1.000000
   158  H    1.000000
 Sum of Mulliken charges = 624.00000

 Dipole moment (field-independent basis, Debye):
    X=              0.0005    Y=             -0.0000    Z=             -0.0000  Tot=              0.0005
 Quadrupole moment (field-independent basis, Debye-Ang):
   XX=              0.0041   YY=              0.0001   ZZ=             -0.0000
   XY=              0.0003   XZ=              0.0013   YZ=              0.0001

 Normal termination of Gaussian 16 at Thu Oct 14 19:46:49 2021.
