 Gaussian 16, Revision A.03,
 Gaussian 16:  ES64L-G16RevA.03 25-Dec-2016

 --------------------------------------------------------
 #p PBE1PBE/Def2SVP td=(nstates=5) density=(transition=1)
 --------------------------------------------------------

 --------------------------------
 TDDFT excited states in gaussian
 --------------------------------
 Symbolic Z-matrix:
 Charge =  0 Multiplicity = 1

                         Standard orientation:
 ---------------------------------------------------------------------
 Center     Atomic      Atomic             Coordinates (Angstroms)
 Number     Number       Type             X           Y           Z
 ---------------------------------------------------------------------
      1         12           0        5.502341    0.098815    0.713550
      2          6           0        4.866474   -3.235158   -0.028588
      3          6           0        3.110305   -0.109469    3.164658
      4          6           0        5.931404    3.474817    1.290970
      5          6           0        7.492388    0.401439   -2.132273
      6          7           0        4.228446   -1.528082    1.523250
      7          6           0        4.202476   -2.821478    1.158995
      8          6           0        3.349721   -3.735721    2.069268
      9          6           0        2.594970   -2.656476    2.957775
     10          6           0        3.315639   -1.295415    2.511198
     11          6           0        1.055750   -2.730206    2.655559
     12          6           0        4.374593   -4.679947    2.884328
     13          6           0        4.124301   -6.214462    2.799377
     14          1           0        2.660217   -6.602087    2.379918
     15          7           0        4.623272    1.536560    1.969247
     16          6           0        3.697864    1.207900    2.981326
     17          6           0        3.516324    2.361522    3.836384
     18          6           0        4.269542    3.410598    3.294330
     19          6           0        5.068350    2.815457    2.159744
     20          6           0        2.403616    2.401248    4.893493
     21          6           0        4.333738    4.886467    3.769285
     22          8           0        5.030272    5.777473    3.248175
     23          6           0        3.538843    5.279308    5.026445
     24          7           0        6.514876    1.690767   -0.361365
     25          6           0        6.566276    3.015602    0.169480
     26          6           0        7.256104    3.967457   -0.829984
     27          6           0        7.993316    2.910087   -1.777329
     28          6           0        7.326723    1.568778   -1.373655
     29          6           0        6.217765    4.882231   -1.458295
     30          6           0        9.553957    2.864218   -1.493876
     31          6           0       10.212336    2.656082   -0.087531
     32          7           0        6.020175   -1.088695   -0.819667
     33          6           0        6.826916   -0.851170   -1.936752
     34          6           0        6.921714   -2.049447   -2.705702
     35          6           0        6.223122   -3.009132   -1.995603
     36          6           0        5.592847   -2.371505   -0.898550
     37          6           0        7.594023   -2.229198   -4.051457
     38          6           0        5.857505   -4.369982   -1.989396
     39          8           0        6.068029   -5.175503   -2.839279
     40          6           0        4.861481   -4.537025   -0.768133
     41          6           0        3.518051   -4.847112   -1.368324
     42          8           0        2.601298   -4.054436   -1.425971
     43          8           0        3.566573   -6.101378   -1.832524
     44          6           0        2.541550   -6.379227   -2.808614
     45          1           0        2.410667   -0.185391    3.999353
     46          1           0        5.867807    4.563384    1.336827
     47          1           0        8.103853    0.482587   -3.033953
     48          1           0        2.659584   -4.396994    1.545662
     49          1           0        2.752035   -2.756402    4.032008
     50          1           0        0.559196   -1.765809    2.545853
     51          1           0        0.738316   -3.257205    3.554895
     52          1           0        0.934050   -3.416547    1.817908
     53          1           0        4.421857   -4.295828    3.903092
     54          1           0        5.367117   -4.482182    2.478757
     55          1           0        4.347226   -6.515011    3.822559
     56          1           0        4.794694   -6.754265    2.131238
     57          1           0        1.782063    3.268376    4.668766
     58          1           0        2.843966    2.591627    5.873164
     59          1           0        1.845404    1.465648    4.879582
     60          1           0        2.486260    5.293464    4.740644
     61          1           0        3.801289    6.318467    5.224160
     62          1           0        3.899114    4.705028    5.879621
     63          1           0        8.026140    4.469296   -0.243340
     64          1           0        7.917757    3.229534   -2.816098
     65          1           0        5.364598    5.072743   -0.807004
     66          1           0        5.842650    4.454786   -2.387897
     67          1           0        6.636309    5.871023   -1.644814
     68          1           0        9.995486    3.754788   -1.941243
     69          1           0        9.861417    1.964075   -2.026207
     70          1           0       10.327532    3.632909    0.382407
     71          1           0       11.187189    2.210923   -0.289937
     72          1           0        9.734754    1.922908    0.563233
     73          1           0        8.658872   -1.998547   -4.015085
     74          1           0        7.089393   -1.505017   -4.690672
     75          1           0        7.638818   -3.253267   -4.424746
     76          1           0        5.059590   -5.338774   -0.056532
     77          1           0        2.832901   -7.113948   -3.558847
     78          1           0        1.981900   -5.580220   -3.294700
     79          1           0        1.656241   -6.853214   -2.384191
     80         12           0       -4.565592    0.809518   -1.110853
     81          6           0       -7.563362   -0.846118    0.007645
     82          6           0       -2.869173   -2.031542   -0.656607
     83          6           0       -1.759211    2.631744   -1.296500
     84          6           0       -6.414857    3.789917   -1.069656
     85          7           0       -5.148494   -1.148822   -0.364567
     86          6           0       -6.432900   -1.676746   -0.148963
     87          6           0       -6.389900   -3.244016    0.013438
     88          6           0       -4.870539   -3.555591   -0.141575
     89          6           0       -4.250167   -2.169980   -0.463470
     90          6           0       -4.179821   -4.227397    1.017987
     91          6           0       -7.371539   -4.009946   -1.025296
     92          6           0       -8.348449   -5.005901   -0.388215
     93          1           0       -8.207574   -6.476381   -0.931538
     94          7           0       -2.575769    0.333999   -1.130364
     95          6           0       -2.052227   -0.878393   -0.922529
     96          6           0       -0.589197   -0.848027   -0.964010
     97          6           0       -0.280054    0.552846   -1.058495
     98          6           0       -1.562144    1.258713   -1.153797
     99          6           0        0.248413   -2.050284   -0.868016
    100          6           0        1.166755    1.130396   -0.958497
    101          8           0        1.400092    2.318208   -1.107492
    102          6           0        2.364646    0.273248   -0.700180
    103          7           0       -4.181586    2.845433   -1.174392
    104          6           0       -2.904958    3.356644   -1.381926
    105          6           0       -2.945801    4.909300   -1.565700
    106          6           0       -4.471627    5.187037   -1.835971
    107          6           0       -5.076730    3.855830   -1.390886
    108          6           0       -2.245504    5.791581   -0.481460
    109          6           0       -4.809138    5.494754   -3.320584
    110          6           0       -5.835284    6.556925   -3.624775
    111          7           0       -6.558295    1.400958   -0.587203
    112          6           0       -7.142147    2.635292   -0.625934
    113          6           0       -8.635077    2.476484   -0.341740
    114          6           0       -8.846081    1.133703   -0.141378
    115          6           0       -7.545507    0.528783   -0.229970
    116          6           0       -9.608442    3.630770   -0.416770
    117          6           0       -9.803332    0.088547    0.174564
    118          8           0      -11.023466    0.287501    0.351171
    119          6           0       -8.962899   -1.306993    0.389196
    120          6           0       -8.966279   -1.838454    1.807323
    121          8           0       -8.611591   -1.117307    2.760736
    122          8           0       -9.562766   -3.096187    1.905933
    123          6           0       -9.947221   -3.420243    3.274779
    124          1           0       -2.272532   -2.945660   -0.635509
    125          1           0       -0.799023    3.137814   -1.413628
    126          1           0       -6.946147    4.735829   -1.197601
    127          1           0       -6.768194   -3.383660    1.025914
    128          1           0       -4.829217   -4.345879   -0.892395
    129          1           0       -4.833402   -4.381292    1.876724
    130          1           0       -3.518376   -3.416470    1.321037
    131          1           0       -3.748840   -5.195650    0.761563
    132          1           0       -6.669244   -4.496455   -1.701622
    133          1           0       -7.879234   -3.269678   -1.643068
    134          1           0       -9.346709   -4.588362   -0.519500
    135          1           0       -8.153618   -5.061412    0.683558
    136          1           0        1.013969   -2.124017   -0.096257
    137          1           0        0.912060   -1.984392   -1.729432
    138          1           0       -0.265785   -2.995952   -1.040910
    139          1           0        2.401731   -0.419621   -1.541666
    140          1           0        2.138028   -0.315422    0.189200
    141          1           0        3.202385    0.962238   -0.600084
    142          1           0       -2.399587    5.070350   -2.495147
    143          1           0       -4.892116    5.935588   -1.164848
    144          1           0       -1.732359    5.071399    0.155412
    145          1           0       -2.918020    6.459866    0.055570
    146          1           0       -1.403855    6.352584   -0.889547
    147          1           0       -5.171304    4.503621   -3.593021
    148          1           0       -3.945502    5.700024   -3.953447
    149          1           0       -5.425436    7.127511   -4.458257
    150          1           0       -5.984319    7.257074   -2.802144
    151          1           0       -6.692381    6.030143   -4.045008
    152          1           0       -9.029606    4.522654   -0.656063
    153          1           0      -10.013853    3.796115    0.581180
    154          1           0      -10.409282    3.388802   -1.115196
    155          1           0       -9.332283   -2.041091   -0.326880
    156          1           0      -11.019525   -3.449085    3.463218
    157          1           0       -9.502324   -2.770377    4.028467
    158          1           0       -9.553085   -4.417211    3.470105
 ---------------------------------------------------------------------

 SCF Done:  E(RPBE1PBE) =  -4067.37175960     A.U. after   16 cycles

 Excitation energies and oscillator strengths:

 Excited State   1:      Singlet-A      1.5022 eV  825.37 nm  f=0.0001  <S**2>=0.000
     312 -> 313        0.70692
 This state for optimization and/or second-order correction.
 Total Energy, E(TD-HF/TD-DFT) =  -4067.31655620
 Copying the excited state density for this state as the 1-particle RhoCI density.

 Excited State   2:      Singlet-A      1.8438 eV  672.43 nm  f=0.5879  <S**2>=0.000
     309 -> 315       -0.13355
     311 -> 313        0.55185
     312 -> 314        0.42174

 Excited State   3:      Singlet-A      1.8458 eV  671.71 nm  f=0.2274  <S**2>=0.000
     309 -> 315        0.10321
     310 -> 316       -0.13102
     311 -> 313       -0.41983
     312 -> 314        0.55374

 Excited State   4:      Singlet-A      1.8988 eV  652.95 nm  f=0.0007  <S**2>=0.000
     311 -> 314        0.70591

 Excited State   5:      Singlet-A      2.2174 eV  559.15 nm  f=0.0923  <S**2>=0.000
     309 -> 313        0.65460
     311 -> 315        0.24438

 The electronic state is 1-A.
 Alpha  occ. eigenvalues --  -46.91665 -46.91445 -19.27514 -19.27068 -19.21243
 Alpha  occ. eigenvalues --  -19.20774 -19.19722 -19.19711 -19.19031 -19.18174
 Alpha  occ. eigenvalues --  -14.41986 -14.41733 -14.41122 -14.40882 -14.39453
 Alpha  occ. eigenvalues --  -14.38919 -14.38885 -14.38643 -10.37538 -10.37122
 Alpha  occ. eigenvalues --  -10.33248 -10.32468 -10.32126 -10.31490 -10.29497
 Alpha  occ. eigenvalues --  -10.29230 -10.28911 -10.28782 -10.28552 -10.28476
 Alpha  occ. eigenvalues --  -10.28362 -10.27895 -10.27895 -10.27858 -10.27827
 Alpha  occ. eigenvalues --  -10.27722 -10.27720 -10.27647 -10.27635 -10.27206
 Alpha  occ. eigenvalues --  -10.27169 -10.26917 -10.26742 -10.26667 -10.26639
 Alpha  occ. eigenvalues --  -10.26338 -10.26318 -10.26129 -10.26115 -10.26006
 Alpha  occ. eigenvalues --  -10.25778 -10.25721 -10.25710 -10.25641 -10.25591
 Alpha  occ. eigenvalues --  -10.25452 -10.25433 -10.25288 -10.25074 -10.24991
 Alpha  occ. eigenvalues --  -10.24937 -10.24925 -10.24841 -10.24662 -10.24513
 Alpha  occ. eigenvalues --  -10.24478 -10.24244 -10.24240 -10.24221 -10.23790
 Alpha  occ. eigenvalues --  -10.23734 -10.23706 -10.23275 -10.23174 -10.23159
 Alpha  occ. eigenvalues --  -10.23081 -10.23056 -10.22939 -10.22930 -10.22831
 Alpha  occ. eigenvalues --  -10.22828 -10.22629 -10.22609 -10.22566 -10.22547
 Alpha  occ. eigenvalues --  -10.22418  -3.13851  -3.13673  -1.86696  -1.86496
 Alpha  occ. eigenvalues --   -1.86202  -1.86095  -1.86032  -1.85922  -1.13698
 Alpha  occ. eigenvalues --   -1.10817  -1.06960  -1.04772  -1.04248  -1.03349
 Alpha  occ. eigenvalues --   -1.03224  -1.02446  -0.98975  -0.98182  -0.98132
 Alpha  occ. eigenvalues --   -0.97587  -0.97488  -0.96904  -0.96173  -0.96140
 Alpha  occ. eigenvalues --   -0.87403  -0.86553  -0.83091  -0.83076  -0.82766
 Alpha  occ. eigenvalues --   -0.82721  -0.82153  -0.81973  -0.81522  -0.81253
 Alpha  occ. eigenvalues --   -0.80993  -0.80834  -0.80530  -0.80030  -0.78579
 Alpha  occ. eigenvalues --   -0.78274  -0.77894  -0.77642  -0.76725  -0.76707
 Alpha  occ. eigenvalues --   -0.75869  -0.75349  -0.75285  -0.75191  -0.74351
 Alpha  occ. eigenvalues --   -0.74161  -0.72183  -0.72057  -0.71618  -0.71602
 Alpha  occ. eigenvalues --   -0.71269  -0.70834  -0.70420  -0.70240  -0.69493
 Alpha  occ. eigenvalues --   -0.68727  -0.67571  -0.66483  -0.65860  -0.65101
 Alpha  occ. eigenvalues --   -0.63403  -0.63293  -0.63111  -0.62627  -0.62472
 Alpha  occ. eigenvalues --   -0.61949  -0.61099  -0.60724  -0.60696  -0.59466
 Alpha  occ. eigenvalues --   -0.59401  -0.59263  -0.59134  -0.59089  -0.58576
 Alpha  occ. eigenvalues --   -0.58522  -0.57246  -0.56844  -0.54742  -0.54357
 Alpha  occ. eigenvalues --   -0.54186  -0.53934  -0.53759  -0.53284  -0.53021
 Alpha  occ. eigenvalues --   -0.52855  -0.52817  -0.52505  -0.52108  -0.51561
 Alpha  occ. eigenvalues --   -0.51177  -0.50592  -0.50408  -0.50100  -0.49679
 Alpha  occ. eigenvalues --   -0.49287  -0.49178  -0.49062  -0.48607  -0.48195
 Alpha  occ. eigenvalues --   -0.48101  -0.48054  -0.47846  -0.47391  -0.47090
 Alpha  occ. eigenvalues --   -0.46978  -0.46830  -0.46663  -0.46620  -0.46570
 Alpha  occ. eigenvalues --   -0.46077  -0.45969  -0.45898  -0.45765  -0.45700
 Alpha  occ. eigenvalues --   -0.45566  -0.45476  -0.45359  -0.45006  -0.44779
 Alpha  occ. eigenvalues --   -0.44712  -0.44465  -0.44383  -0.43811  -0.43774
 Alpha  occ. eigenvalues --   -0.43645  -0.43575  -0.43515  -0.43354  -0.43095
 Alpha  occ. eigenvalues --   -0.42942  -0.42889  -0.42691  -0.42596  -0.42545
 Alpha  occ. eigenvalues --   -0.42392  -0.42322  -0.42241  -0.41932  -0.41573
 Alpha  occ. eigenvalues --   -0.41537  -0.41333  -0.41254  -0.41124  -0.40932
 Alpha  occ. eigenvalues --   -0.40655  -0.40599  -0.40522  -0.40438  -0.40196
 Alpha  occ. eigenvalues --   -0.40081  -0.39963  -0.39871  -0.39776  -0.39609
 Alpha  occ. eigenvalues --   -0.39511  -0.39249  -0.39029  -0.38879  -0.38761
 Alpha  occ. eigenvalues --   -0.38618  -0.38583  -0.38559  -0.38413  -0.38161
 Alpha  occ. eigenvalues --   -0.38147  -0.38076  -0.37930  -0.37662  -0.37639
 Alpha  occ. eigenvalues --   -0.37511  -0.37358  -0.37325  -0.37177  -0.36930
 Alpha  occ. eigenvalues --   -0.36758  -0.36383  -0.36245  -0.35984  -0.35802
 Alpha  occ. eigenvalues --   -0.35740  -0.35644  -0.35381  -0.35332  -0.35240
 Alpha  occ. eigenvalues --   -0.34824  -0.34562  -0.34355  -0.34159  -0.33767
 Alpha  occ. eigenvalues --   -0.32986  -0.32959  -0.32742  -0.32638  -0.32405
 Alpha  occ. eigenvalues --   -0.32217  -0.32198  -0.32076  -0.31761  -0.31463
 Alpha  occ. eigenvalues --   -0.31226  -0.30873  -0.30424  -0.29610  -0.29517
 Alpha  occ. eigenvalues --   -0.29300  -0.28509  -0.28166  -0.27365  -0.26728
 Alpha  occ. eigenvalues --   -0.26444  -0.26040  -0.25848  -0.25607  -0.25496
 Alpha  occ. eigenvalues --   -0.25222  -0.24955  -0.24758  -0.20911  -0.20708
 Alpha  occ. eigenvalues --   -0.18816  -0.18050
 Alpha virt. eigenvalues --   -0.11239  -0.10519  -0.05110  -0.04481  -0.03967
 Alpha virt. eigenvalues --   -0.03899  -0.02171  -0.01761  -0.01413  -0.00623
 Alpha virt. eigenvalues --   -0.00480   0.00221   0.00566   0.00869   0.01552

 Mulliken charges:
               1
     1  Mg  11.999765
     2  C    6.000440
     3  C    6.000049
     4  C    5.999629
     5  C    5.999470
     6  N    6.999865
     7  C    5.999868
     8  C    5.999958
     9  C    6.000309
    10  C    5.999864
    11  C    6.000066
    12  C    6.000003
    13  C    6.000024
    14  H    0.999932
    15  N    7.000006
    16  C    5.999793
    17  C    5.999902
    18  C    5.999980
    19  C    6.000034
    20  C    6.000027
    21  C    5.999960
    22  O    7.999980
    23  C    6.000036
    24  N    6.999766
    25  C    6.000120
    26  C    6.000001
    27  C    6.000026
    28  C    6.000208
    29  C    6.000064
    30  C    6.000030
    31  C    6.000034
    32  N    7.000121
    33  C    6.000110
    34  C    5.999922
    35  C    6.000004
    36  C    5.999790
    37  C    6.000024
    38  C    6.000067
    39  O    8.000161
    40  C    5.999898
    41  C    6.000111
    42  O    7.999996
    43  O    7.999997
    44  C    6.000012
    45  H    0.999907
    46  H    0.999853
    47  H    0.999800
    48  H    0.999972
    49  H    0.999956
    50  H    1.000326
    51  H    0.999748
    52  H    0.999810
    53  H    0.999962
    54  H    0.999959
    55  H    0.999973
    56  H    0.999955
    57  H    0.999886
    58  H    0.999907
    59  H    0.999912
    60  H    0.999927
    61  H    0.999914
    62  H    0.999962
    63  H    0.999920
    64  H    0.999894
    65  H    0.999950
    66  H    0.999931
    67  H    0.999880
    68  H    0.999903
    69  H    0.999971
    70  H    0.999948
    71  H    0.999915
    72  H    1.000025
    73  H    0.999984
    74  H    0.999971
    75  H    0.999897
    76  H    0.999983
    77  H    0.999973
    78  H    1.000006
    79  H    0.999987
    80  Mg  12.000078
    81  C    5.999928
    82  C    6.000004
    83  C    6.000103
    84  C    5.999948
    85  N    6.999964
    86  C    6.000293
    87  C    5.999918
    88  C    5.999999
    89  C    6.000036
    90  C    6.000063
    91  C    5.999964
    92  C    5.999950
    93  H    1.000154
    94  N    6.999909
    95  C    5.999974
    96  C    5.999821
    97  C    5.999711
    98  C    5.999956
    99  C    6.000055
   100  C    5.999897
   101  O    7.999897
   102  C    6.000068
   103  N    6.999944
   104  C    6.000009
   105  C    6.000007
   106  C    5.999919
   107  C    6.000252
   108  C    5.999953
   109  C    5.999975
   110  C    5.999961
   111  N    7.000024
   112  C    6.000272
   113  C    6.000263
   114  C    6.000036
   115  C    6.000188
   116  C    5.999956
   117  C    6.000211
   118  O    8.000259
   119  C    6.000012
   120  C    6.000041
   121  O    8.000061
   122  O    8.000015
   123  C    5.999955
   124  H    1.000060
   125  H    1.000082
   126  H    1.000148
   127  H    1.000068
   128  H    1.000059
   129  H    0.999966
   130  H    0.999987
   131  H    1.000046
   132  H    1.000110
   133  H    0.999987
   134  H    0.999992
   135  H    1.000031
   136  H    0.999603
   137  H    1.000282
   138  H    0.999915
   139  H    0.999857
   140  H    1.000030
   141  H    1.000079
   142  H    1.000086
   143  H    1.000054
   144  H    1.000120
   145  H    0.999974
   146  H    1.000084
   147  H    0.999988
   148  H    1.000148
   149  H    1.000090
   150  H    1.000039
   151  H    0.999984
   152  H    1.000162
   153  H    1.000204
   154  H    1.000184
   155  H    1.000110
   156  H    1.000056
   157  H    1.000049
   158  H    1.000079
 Sum of Mulliken charges = 624.00000

 Dipole moment (field-independent basis, Debye):
    X=             -0.2081    Y=             -0.0039    Z=             -0.0182  Tot=              0.2089
 Quadrupole moment (field-independent basis, Debye-Ang):
   XX=              0.5972   YY=              0.0802   ZZ=             -0.0882
   XY=             -0.3271   XZ=              0.0184   YZ=             -0.0567

 Normal termination of Gaussian 16 at Thu Oct 14 20:54:36 2021.
