 Gaussian 16, Revision A.03,
 Gaussian 16:  ES64L-G16RevA.03 25-Dec-2016

 --------------------------------------------------------
 #p PBE1PBE/Def2SVP td=(nstates=5) density=(transition=1)
 --------------------------------------------------------

 --------------------------------
 TDDFT excited states in gaussian
 --------------------------------
 Symbolic Z-matrix:
 Charge =  0 Multiplicity = 1

                         Standard orientation:
 ---------------------------------------------------------------------
 Center     Atomic      Atomic             Coordinates (Angstroms)
 Number     Number       Type             X           Y           Z
 ---------------------------------------------------------------------
      1         12           0       32.437287    0.013872   -0.120193
      2          6           0       29.075692    0.109026    0.604025
      3          6           0       32.154894   -3.096292   -1.525375
      4          6           0       35.822631    0.026127   -1.020587
      5          6           0       32.681967    3.407699    0.469959
      6          7           0       30.700005   -1.197860   -0.583702
      7          6           0       29.412651   -1.090949   -0.050431
      8          6           0       28.518695   -2.245403   -0.510163
      9          6           0       29.610364   -3.235038   -0.990684
     10          6           0       30.931815   -2.452729   -1.135206
     11          6           0       29.688216   -4.515708   -0.131087
     12          6           0       27.532254   -1.816065   -1.614230
     13          6           0       26.067140   -2.363246   -1.505717
     14          1           0       25.357658   -2.587136   -2.783775
     15          7           0       33.764857   -1.347202   -1.062390
     16          6           0       33.484234   -2.601342   -1.484534
     17          6           0       34.656493   -3.355911   -1.812930
     18          6           0       35.756391   -2.523574   -1.547874
     19          6           0       35.134828   -1.191888   -1.153917
     20          6           0       34.651446   -4.836094   -2.200306
     21          6           0       37.278230   -2.883865   -1.704222
     22          8           0       37.580212   -4.003338   -2.191346
     23          6           0       38.462545   -1.949360   -1.204496
     24          7           0       33.957366    1.575433   -0.541710
     25          6           0       35.267622    1.295812   -0.746039
     26          6           0       36.155551    2.505423   -0.604734
     27          6           0       35.170791    3.614602   -0.176075
     28          6           0       33.862440    2.833333   -0.030404
     29          6           0       37.386863    2.305774    0.339963
     30          6           0       35.158034    4.869901   -1.172435
     31          6           0       35.870145    6.118022   -0.638185
     32          7           0       31.187050    1.479259    0.478337
     33          6           0       31.396903    2.853969    0.724701
     34          6           0       30.213693    3.412129    1.392544
     35          6           0       29.332554    2.340149    1.420746
     36          6           0       29.938229    1.266044    0.748184
     37          6           0       29.957802    4.785841    1.900556
     38          6           0       27.978304    1.942544    1.831118
     39          8           0       27.146773    2.486204    2.576532
     40          6           0       27.768187    0.449759    1.353693
     41          6           0       27.518741   -0.480399    2.533306
     42          8           0       28.131416   -0.520537    3.604942
     43          8           0       26.424848   -1.196351    2.146915
     44          6           0       25.829226   -2.063112    3.149958
     45          1           0       32.078965   -4.090395   -1.970647
     46          1           0       36.897356    0.133843   -1.181612
     47          1           0       32.693568    4.478028    0.685301
     48          1           0       27.931512   -2.610532    0.333105
     49          1           0       29.261252   -3.528299   -1.980697
     50          1           0       28.829855   -4.810549    0.472517
     51          1           0       30.474532   -4.327248    0.599710
     52          1           0       29.931178   -5.396451   -0.725068
     53          1           0       27.910524   -2.007818   -2.617975
     54          1           0       27.565250   -0.726312   -1.608742
     55          1           0       25.476072   -1.672701   -0.904208
     56          1           0       26.101233   -3.345934   -1.033259
     57          1           0       35.302132   -5.328503   -1.477997
     58          1           0       34.838829   -4.936685   -3.269426
     59          1           0       33.639538   -5.170498   -1.971750
     60          1           0       38.645483   -1.239456   -2.010286
     61          1           0       39.327875   -2.599737   -1.078915
     62          1           0       38.190286   -1.624445   -0.199938
     63          1           0       36.564360    2.736916   -1.588377
     64          1           0       35.270222    3.983357    0.844556
     65          1           0       37.508381    3.145736    1.023368
     66          1           0       38.321462    2.188326   -0.208214
     67          1           0       37.279893    1.358307    0.866520
     68          1           0       34.149051    5.223964   -1.383442
     69          1           0       35.548435    4.576476   -2.146842
     70          1           0       36.414178    6.604875   -1.447762
     71          1           0       36.573858    5.833292    0.143706
     72          1           0       35.199640    6.854697   -0.196037
     73          1           0       30.884297    5.350053    1.793725
     74          1           0       29.448071    4.737569    2.863021
     75          1           0       29.290411    5.251395    1.174540
     76          1           0       26.964247    0.356200    0.623121
     77          1           0       26.555194   -2.645957    3.718270
     78          1           0       25.068721   -2.765938    2.809765
     79          1           0       25.274750   -1.461913    3.870981
     80         12           0      -32.506685    0.252042   -0.236164
     81          6           0      -29.968241    0.188953    2.135078
     82          6           0      -33.172939   -3.019018    0.557195
     83          6           0      -34.855014    0.212883   -2.765733
     84          6           0      -31.422250    3.360050   -1.382840
     85          7           0      -31.715914   -1.189354    1.254566
     86          6           0      -30.770596   -0.984015    2.187540
     87          6           0      -30.603448   -2.134658    3.207201
     88          6           0      -31.487158   -3.267915    2.529961
     89          6           0      -32.169460   -2.475479    1.314317
     90          6           0      -30.556758   -4.462328    2.113183
     91          6           0      -31.166536   -1.598254    4.621928
     92          6           0      -30.206405   -1.714930    5.842230
     93          1           0      -29.060650   -2.774386    5.656384
     94          7           0      -33.792164   -1.182278   -1.076950
     95          6           0      -33.969642   -2.468947   -0.527694
     96          6           0      -35.115961   -3.088346   -1.157950
     97          6           0      -35.581478   -2.208788   -2.143542
     98          6           0      -34.783669   -0.936670   -1.986102
     99          6           0      -35.434636   -4.575000   -0.944680
    100          6           0      -36.719051   -2.441722   -3.172893
    101          8           0      -37.094198   -1.615589   -4.025757
    102          6           0      -37.505269   -3.761962   -3.099000
    103          7           0      -32.969745    1.595399   -1.878098
    104          6           0      -34.065485    1.330115   -2.754799
    105          6           0      -34.115179    2.380316   -3.884146
    106          6           0      -33.191570    3.525970   -3.256929
    107          6           0      -32.511187    2.800812   -2.066284
    108          6           0      -33.669231    1.742615   -5.189597
    109          6           0      -34.055945    4.752927   -2.741680
    110          6           0      -35.275320    4.653031   -1.763041
    111          7           0      -30.987527    1.495817    0.181288
    112          6           0      -30.633976    2.733463   -0.364939
    113          6           0      -29.490700    3.237058    0.324589
    114          6           0      -29.219150    2.320053    1.323903
    115          6           0      -30.084279    1.211654    1.149704
    116          6           0      -28.695172    4.484861   -0.000201
    117          6           0      -28.365558    2.051535    2.412438
    118          8           0      -27.414536    2.679976    2.753180
    119          6           0      -28.750111    0.595217    2.905090
    120          6           0      -27.562963   -0.274163    2.595181
    121          8           0      -27.529201   -1.078030    1.687022
    122          8           0      -26.596206    0.043220    3.464473
    123          6           0      -25.285983   -0.366820    3.021970
    124          1           0      -33.447213   -4.032370    0.856970
    125          1           0      -35.420653    0.092065   -3.691249
    126          1           0      -31.062795    4.328732   -1.737730
    127          1           0      -29.576425   -2.456877    3.377879
    128          1           0      -32.298612   -3.648550    3.150677
    129          1           0      -30.755360   -4.880760    1.126200
    130          1           0      -30.813172   -5.155497    2.913850
    131          1           0      -29.531632   -4.134647    2.284286
    132          1           0      -32.137969   -2.066959    4.777797
    133          1           0      -31.399560   -0.542377    4.482199
    134          1           0      -30.905635   -2.005332    6.625601
    135          1           0      -29.726218   -0.783682    6.141263
    136          1           0      -35.443854   -5.042879   -1.929436
    137          1           0      -36.448446   -4.673802   -0.554381
    138          1           0      -34.700973   -5.018730   -0.272383
    139          1           0      -36.843676   -4.542869   -3.476217
    140          1           0      -38.299546   -3.669869   -3.839584
    141          1           0      -37.997793   -3.839044   -2.129990
    142          1           0      -35.141629    2.747990   -3.871219
    143          1           0      -32.554572    3.951882   -4.031285
    144          1           0      -33.878034    0.673745   -5.237423
    145          1           0      -32.598989    1.883433   -5.339037
    146          1           0      -34.221278    2.159626   -6.031632
    147          1           0      -34.374579    5.320580   -3.616004
    148          1           0      -33.333304    5.315524   -2.150546
    149          1           0      -36.174914    4.486787   -2.355828
    150          1           0      -35.320563    5.620206   -1.261046
    151          1           0      -35.172334    3.948890   -0.936783
    152          1           0      -29.303404    5.387951    0.053720
    153          1           0      -28.375185    4.326043   -1.029799
    154          1           0      -27.912324    4.745741    0.713353
    155          1           0      -28.950556    0.454277    3.967344
    156          1           0      -24.480177    0.281008    3.366275
    157          1           0      -25.093793   -0.651013    1.987466
    158          1           0      -24.971564   -1.327315    3.430819
 ---------------------------------------------------------------------

 SCF Done:  E(RPBE1PBE) =  -4067.39699419     A.U. after   16 cycles

 Excitation energies and oscillator strengths:

 Excited State   1:      Singlet-A      1.8385 eV  674.36 nm  f=0.3510  <S**2>=0.000
     309 -> 315       -0.16802
     311 -> 313        0.69267
     311 <- 313       -0.10467
 This state for optimization and/or second-order correction.
 Total Energy, E(TD-HF/TD-DFT) =  -4067.32942912
 Copying the excited state density for this state as the 1-particle RhoCI density.

 Excited State   2:      Singlet-A      1.8555 eV  668.18 nm  f=0.3777  <S**2>=0.000
     310 -> 316       -0.16981
     312 -> 314        0.69317
     312 <- 314       -0.10777

 Excited State   3:      Singlet-A      1.9768 eV  627.18 nm  f=0.0000  <S**2>=0.000
     312 -> 313        0.70711

 Excited State   4:      Singlet-A      2.0503 eV  604.71 nm  f=0.0000  <S**2>=0.000
     311 -> 314        0.70711

 Excited State   5:      Singlet-A      2.2281 eV  556.47 nm  f=0.1214  <S**2>=0.000
     310 -> 314        0.65665
     312 -> 316        0.24646

 The electronic state is 1-A.
 Alpha  occ. eigenvalues --  -46.92581 -46.91466 -19.27080 -19.26686 -19.20582
 Alpha  occ. eigenvalues --  -19.20171 -19.19701 -19.19341 -19.18990 -19.18913
 Alpha  occ. eigenvalues --  -14.42001 -14.41704 -14.41642 -14.40929 -14.39723
 Alpha  occ. eigenvalues --  -14.39310 -14.38889 -14.38639 -10.37053 -10.36203
 Alpha  occ. eigenvalues --  -10.33700 -10.32434 -10.32118 -10.31734 -10.29723
 Alpha  occ. eigenvalues --  -10.29308 -10.29181 -10.29016 -10.29012 -10.28730
 Alpha  occ. eigenvalues --  -10.28493 -10.28478 -10.28227 -10.28202 -10.27806
 Alpha  occ. eigenvalues --  -10.27730 -10.27722 -10.27666 -10.27616 -10.27558
 Alpha  occ. eigenvalues --  -10.27366 -10.26379 -10.26369 -10.26353 -10.26328
 Alpha  occ. eigenvalues --  -10.26261 -10.25970 -10.25956 -10.25933 -10.25866
 Alpha  occ. eigenvalues --  -10.25812 -10.25755 -10.25726 -10.25708 -10.25658
 Alpha  occ. eigenvalues --  -10.25608 -10.25577 -10.25527 -10.25453 -10.25326
 Alpha  occ. eigenvalues --  -10.25255 -10.25248 -10.24913 -10.24813 -10.24719
 Alpha  occ. eigenvalues --  -10.24712 -10.24707 -10.24638 -10.24618 -10.24277
 Alpha  occ. eigenvalues --  -10.24254 -10.24221 -10.24189 -10.24145 -10.23589
 Alpha  occ. eigenvalues --  -10.23527 -10.23504 -10.23460 -10.23329 -10.23239
 Alpha  occ. eigenvalues --  -10.23188 -10.23002 -10.22913 -10.22775 -10.22611
 Alpha  occ. eigenvalues --  -10.22131  -3.14692  -3.13647  -1.87498  -1.87053
 Alpha  occ. eigenvalues --   -1.86945  -1.86488  -1.85998  -1.85892  -1.12832
 Alpha  occ. eigenvalues --   -1.11689  -1.06573  -1.03773  -1.03259  -1.03196
 Alpha  occ. eigenvalues --   -1.03137  -1.02674  -0.99427  -0.98737  -0.98675
 Alpha  occ. eigenvalues --   -0.98020  -0.97883  -0.97281  -0.96746  -0.95981
 Alpha  occ. eigenvalues --   -0.87005  -0.85879  -0.83180  -0.83103  -0.82973
 Alpha  occ. eigenvalues --   -0.82928  -0.82336  -0.82022  -0.81775  -0.81315
 Alpha  occ. eigenvalues --   -0.81257  -0.80803  -0.80585  -0.80361  -0.78578
 Alpha  occ. eigenvalues --   -0.78224  -0.78178  -0.77618  -0.76793  -0.76527
 Alpha  occ. eigenvalues --   -0.75794  -0.75475  -0.75322  -0.75180  -0.74528
 Alpha  occ. eigenvalues --   -0.74188  -0.72335  -0.72048  -0.71730  -0.71371
 Alpha  occ. eigenvalues --   -0.71002  -0.70987  -0.70246  -0.70089  -0.69619
 Alpha  occ. eigenvalues --   -0.69339  -0.67339  -0.67210  -0.66152  -0.65632
 Alpha  occ. eigenvalues --   -0.63546  -0.63373  -0.63223  -0.63058  -0.62348
 Alpha  occ. eigenvalues --   -0.62306  -0.61576  -0.60857  -0.60576  -0.60252
 Alpha  occ. eigenvalues --   -0.59676  -0.59435  -0.59134  -0.59060  -0.59011
 Alpha  occ. eigenvalues --   -0.58380  -0.57340  -0.56903  -0.54498  -0.54435
 Alpha  occ. eigenvalues --   -0.54190  -0.53914  -0.53554  -0.53531  -0.53204
 Alpha  occ. eigenvalues --   -0.52741  -0.52583  -0.52349  -0.51817  -0.51773
 Alpha  occ. eigenvalues --   -0.50680  -0.50509  -0.50424  -0.50292  -0.49814
 Alpha  occ. eigenvalues --   -0.49581  -0.49498  -0.49020  -0.48488  -0.48413
 Alpha  occ. eigenvalues --   -0.47956  -0.47853  -0.47792  -0.47749  -0.47284
 Alpha  occ. eigenvalues --   -0.47003  -0.46979  -0.46795  -0.46606  -0.46507
 Alpha  occ. eigenvalues --   -0.46366  -0.46198  -0.46147  -0.45907  -0.45748
 Alpha  occ. eigenvalues --   -0.45560  -0.45554  -0.45477  -0.45077  -0.44591
 Alpha  occ. eigenvalues --   -0.44423  -0.44395  -0.44115  -0.44045  -0.43973
 Alpha  occ. eigenvalues --   -0.43810  -0.43684  -0.43518  -0.43268  -0.43211
 Alpha  occ. eigenvalues --   -0.42957  -0.42860  -0.42771  -0.42590  -0.42513
 Alpha  occ. eigenvalues --   -0.42436  -0.42246  -0.42165  -0.42118  -0.41991
 Alpha  occ. eigenvalues --   -0.41679  -0.41512  -0.41336  -0.41302  -0.41158
 Alpha  occ. eigenvalues --   -0.41018  -0.40922  -0.40702  -0.40408  -0.40389
 Alpha  occ. eigenvalues --   -0.40251  -0.40073  -0.39736  -0.39654  -0.39541
 Alpha  occ. eigenvalues --   -0.39492  -0.39227  -0.39195  -0.38936  -0.38748
 Alpha  occ. eigenvalues --   -0.38689  -0.38574  -0.38456  -0.38371  -0.38298
 Alpha  occ. eigenvalues --   -0.38180  -0.38141  -0.37870  -0.37745  -0.37723
 Alpha  occ. eigenvalues --   -0.37474  -0.37326  -0.37239  -0.37137  -0.36993
 Alpha  occ. eigenvalues --   -0.36861  -0.36765  -0.36618  -0.36506  -0.36205
 Alpha  occ. eigenvalues --   -0.36083  -0.35758  -0.35690  -0.35633  -0.35550
 Alpha  occ. eigenvalues --   -0.35165  -0.34675  -0.34483  -0.34247  -0.34079
 Alpha  occ. eigenvalues --   -0.33657  -0.33374  -0.33117  -0.32664  -0.32458
 Alpha  occ. eigenvalues --   -0.32383  -0.32071  -0.31925  -0.31924  -0.31529
 Alpha  occ. eigenvalues --   -0.31474  -0.31192  -0.30055  -0.29758  -0.29596
 Alpha  occ. eigenvalues --   -0.29174  -0.28673  -0.28248  -0.27122  -0.26961
 Alpha  occ. eigenvalues --   -0.26262  -0.26129  -0.25774  -0.25617  -0.25572
 Alpha  occ. eigenvalues --   -0.25456  -0.25404  -0.25153  -0.21090  -0.20669
 Alpha  occ. eigenvalues --   -0.18732  -0.18596
 Alpha virt. eigenvalues --   -0.11128  -0.10992  -0.05539  -0.04908  -0.03999
 Alpha virt. eigenvalues --   -0.03618  -0.02499  -0.01901  -0.01123  -0.00316
 Alpha virt. eigenvalues --    0.00230   0.00561   0.00688   0.01627   0.01900

 Mulliken charges:
               1
     1  Mg  11.998953
     2  C    6.026818
     3  C    5.990748
     4  C    5.975657
     5  C    5.999421
     6  N    7.015780
     7  C    5.965656
     8  C    6.007415
     9  C    5.991607
    10  C    6.030195
    11  C    5.997055
    12  C    5.999617
    13  C    6.001338
    14  H    0.996243
    15  N    6.995465
    16  C    6.032902
    17  C    6.020317
    18  C    6.012037
    19  C    6.037449
    20  C    5.998261
    21  C    6.010890
    22  O    8.020860
    23  C    6.002032
    24  N    6.993154
    25  C    6.034707
    26  C    5.989214
    27  C    6.007783
    28  C    5.968523
    29  C    5.999337
    30  C    6.003072
    31  C    6.000559
    32  N    7.000031
    33  C    5.964461
    34  C    5.975941
    35  C    5.996760
    36  C    5.973573
    37  C    6.001679
    38  C    5.982589
    39  O    7.969838
    40  C    5.999490
    41  C    5.994578
    42  O    7.997614
    43  O    7.998417
    44  C    6.001569
    45  H    1.010279
    46  H    1.005345
    47  H    0.987211
    48  H    1.001763
    49  H    1.005002
    50  H    1.012674
    51  H    1.000773
    52  H    0.999211
    53  H    0.991678
    54  H    1.007246
    55  H    1.004720
    56  H    0.996156
    57  H    1.013698
    58  H    1.016169
    59  H    1.014863
    60  H    1.009896
    61  H    1.010611
    62  H    1.008273
    63  H    1.000780
    64  H    1.002428
    65  H    1.009559
    66  H    0.997635
    67  H    0.996628
    68  H    1.003104
    69  H    0.988986
    70  H    0.994737
    71  H    0.994763
    72  H    1.002015
    73  H    0.985301
    74  H    0.984983
    75  H    0.981647
    76  H    0.992618
    77  H    0.995156
    78  H    0.994937
    79  H    0.999548
    80  Mg  12.000027
    81  C    5.999853
    82  C    6.000179
    83  C    6.000221
    84  C    5.999950
    85  N    6.999914
    86  C    6.000323
    87  C    5.999929
    88  C    6.000064
    89  C    5.999706
    90  C    6.000045
    91  C    5.999962
    92  C    5.999979
    93  H    1.000045
    94  N    7.000052
    95  C    5.999525
    96  C    5.999859
    97  C    5.999905
    98  C    5.999616
    99  C    6.000007
   100  C    5.999889
   101  O    7.999674
   102  C    6.000058
   103  N    7.000133
   104  C    5.999635
   105  C    6.000053
   106  C    5.999896
   107  C    6.000236
   108  C    6.000034
   109  C    5.999941
   110  C    6.000023
   111  N    6.999911
   112  C    6.000339
   113  C    6.000250
   114  C    6.000041
   115  C    6.000249
   116  C    5.999996
   117  C    6.000243
   118  O    8.000256
   119  C    6.000003
   120  C    6.000003
   121  O    8.000116
   122  O    7.999998
   123  C    5.999942
   124  H    0.999881
   125  H    0.999945
   126  H    1.000128
   127  H    0.999998
   128  H    0.999991
   129  H    1.000030
   130  H    0.999945
   131  H    0.999882
   132  H    1.000097
   133  H    0.999960
   134  H    1.000030
   135  H    0.999972
   136  H    0.999845
   137  H    0.999825
   138  H    0.999849
   139  H    0.999916
   140  H    0.999839
   141  H    0.999922
   142  H    1.000012
   143  H    1.000036
   144  H    1.000082
   145  H    0.999901
   146  H    0.999950
   147  H    1.000083
   148  H    0.999949
   149  H    1.000071
   150  H    1.000000
   151  H    1.000020
   152  H    1.000179
   153  H    1.000160
   154  H    1.000148
   155  H    1.000111
   156  H    1.000050
   157  H    1.000033
   158  H    1.000081
 Sum of Mulliken charges = 624.00000

 Dipole moment (field-independent basis, Debye):
    X=              5.9103    Y=             -7.2989    Z=             -3.5330  Tot=             10.0343
 Quadrupole moment (field-independent basis, Debye-Ang):
   XX=            374.4365   YY=             -1.4309   ZZ=              0.1137
   XY=           -243.3944   XZ=           -115.6641   YZ=              2.2378

 Normal termination of Gaussian 16 at Fri Oct 15 16:36:06 2021.
