 Gaussian 16, Revision A.03,
 Gaussian 16:  ES64L-G16RevA.03 25-Dec-2016

 --------------------------------------------------------
 #p PBE1PBE/Def2SVP td=(nstates=5) density=(transition=1)
 --------------------------------------------------------

 --------------------------------
 TDDFT excited states in gaussian
 --------------------------------
 Symbolic Z-matrix:
 Charge =  0 Multiplicity = 1

                         Standard orientation:
 ---------------------------------------------------------------------
 Center     Atomic      Atomic             Coordinates (Angstroms)
 Number     Number       Type             X           Y           Z
 ---------------------------------------------------------------------
      1         12           0      -20.279529    0.702536    0.206038
      2          6           0      -19.292443   -1.885694   -1.783026
      3          6           0      -20.599878   -1.587519    2.883154
      4          6           0      -21.474080    3.168586    2.130844
      5          6           0      -19.868714    2.843383   -2.448539
      6          7           0      -20.291127   -1.506523    0.449975
      7          6           0      -19.729075   -2.352880   -0.514306
      8          6           0      -19.652028   -3.825645   -0.021374
      9          6           0      -20.149759   -3.619898    1.434005
     10          6           0      -20.436321   -2.139491    1.608949
     11          6           0      -21.337580   -4.484639    2.036768
     12          6           0      -18.226052   -4.530384   -0.088358
     13          6           0      -18.268869   -5.980740    0.463112
     14          1           0      -18.141577   -7.045495   -0.627273
     15          7           0      -20.912391    0.778966    2.291422
     16          6           0      -20.729415   -0.215600    3.227952
     17          6           0      -21.276470    0.309543    4.473486
     18          6           0      -21.535406    1.698008    4.237131
     19          6           0      -21.293597    1.962262    2.853672
     20          6           0      -21.379693   -0.543280    5.678748
     21          6           0      -22.144052    2.652384    5.323088
     22          8           0      -22.570374    3.798602    5.075375
     23          6           0      -22.308969    2.170002    6.740691
     24          7           0      -20.631084    2.601401   -0.101064
     25          6           0      -21.162580    3.497397    0.868721
     26          6           0      -21.582259    4.801059    0.228233
     27          6           0      -20.660413    4.803041   -0.989710
     28          6           0      -20.300948    3.338707   -1.197622
     29          6           0      -23.099838    4.833571   -0.155365
     30          6           0      -19.350027    5.584868   -0.746973
     31          6           0      -19.349312    7.072299   -0.977265
     32          7           0      -19.740398    0.609641   -1.781732
     33          6           0      -19.465306    1.547484   -2.702531
     34          6           0      -19.049601    0.912447   -3.918162
     35          6           0      -18.941125   -0.429575   -3.621458
     36          6           0      -19.334178   -0.568053   -2.281205
     37          6           0      -18.722457    1.679288   -5.151803
     38          6           0      -18.583501   -1.669106   -4.166634
     39          8           0      -18.158279   -1.978632   -5.262881
     40          6           0      -18.798505   -2.703771   -2.964642
     41          6           0      -19.749163   -3.750212   -3.427716
     42          8           0      -20.920734   -3.610496   -3.682041
     43          8           0      -19.186254   -4.961908   -3.399334
     44          6           0      -20.071043   -6.123208   -3.799076
     45          1           0      -20.523612   -2.318221    3.690881
     46          1           0      -21.855889    3.984207    2.748189
     47          1           0      -19.593501    3.473466   -3.296477
     48          1           0      -20.377362   -4.414977   -0.582428
     49          1           0      -19.326379   -3.796792    2.126646
     50          1           0      -21.248347   -4.762057    3.087427
     51          1           0      -21.581680   -5.300877    1.356630
     52          1           0      -22.183827   -3.797826    2.045496
     53          1           0      -17.581675   -3.843617    0.459113
     54          1           0      -17.898591   -4.536776   -1.127906
     55          1           0      -19.138452   -6.107665    1.107953
     56          1           0      -17.384401   -6.098058    1.088565
     57          1           0      -22.437808   -0.716801    5.875603
     58          1           0      -20.783304   -0.046848    6.444254
     59          1           0      -20.876303   -1.497398    5.522013
     60          1           0      -22.686878    2.979061    7.365765
     61          1           0      -21.285096    2.007830    7.080356
     62          1           0      -22.897553    1.265391    6.891230
     63          1           0      -21.398720    5.644527    0.894375
     64          1           0      -21.136787    5.183806   -1.892908
     65          1           0      -23.296235    4.218243   -1.032513
     66          1           0      -23.424387    5.860010   -0.328270
     67          1           0      -23.624605    4.447157    0.717670
     68          1           0      -18.503241    5.173922   -1.295214
     69          1           0      -19.006768    5.409003    0.272606
     70          1           0      -19.078770    7.533014   -0.027615
     71          1           0      -20.407463    7.299333   -1.108077
     72          1           0      -18.756394    7.399063   -1.831688
     73          1           0      -17.647293    1.838191   -5.225024
     74          1           0      -19.288238    2.586954   -5.364124
     75          1           0      -18.971581    1.008209   -5.973991
     76          1           0      -17.835041   -3.155389   -2.727142
     77          1           0      -20.986930   -6.040392   -3.213519
     78          1           0      -19.638166   -7.095325   -3.561609
     79          1           0      -20.274486   -6.032717   -4.866319
     80         12           0       20.647316    0.551051   -0.462515
     81          6           0       18.364975   -2.067080   -0.094689
     82          6           0       23.070187   -1.613957    0.855384
     83          6           0       22.812568    3.091801   -0.227452
     84          6           0       18.002845    2.737262   -0.728138
     85          7           0       20.758774   -1.687690    0.219420
     86          6           0       19.640667   -2.456628    0.303080
     87          6           0       19.991486   -3.883301    0.884749
     88          6           0       21.486515   -3.617809    1.424676
     89          6           0       21.802862   -2.223449    0.858193
     90          6           0       21.403298   -3.496052    2.987766
     91          6           0       19.997568   -4.892523   -0.321684
     92          6           0       20.447248   -6.350466   -0.031855
     93          1           0       21.365726   -7.229719   -0.827258
     94          7           0       22.679433    0.645028    0.024397
     95          6           0       23.548157   -0.344904    0.513317
     96          6           0       24.804008    0.246619    0.712967
     97          6           0       24.802345    1.548939    0.231505
     98          6           0       23.395728    1.811804   -0.024036
     99          6           0       25.955899   -0.578698    1.185187
    100          6           0       25.948536    2.609845    0.142572
    101          8           0       25.824982    3.737994   -0.322137
    102          6           0       27.408395    2.255777    0.438862
    103          7           0       20.397280    2.607765   -0.360798
    104          6           0       21.466036    3.433796   -0.412493
    105          6           0       21.098370    4.903158   -0.697391
    106          6           0       19.547203    4.812435   -0.717773
    107          6           0       19.269002    3.319990   -0.720734
    108          6           0       21.781370    5.940764    0.254188
    109          6           0       18.804558    5.587170   -1.840740
    110          6           0       18.854652    4.999455   -3.187019
    111          7           0       18.600506    0.416489   -0.521181
    112          6           0       17.676119    1.342286   -0.630730
    113          6           0       16.333001    0.765457   -0.748779
    114          6           0       16.610187   -0.623233   -0.539030
    115          6           0       17.971750   -0.781753   -0.369739
    116          6           0       15.135863    1.338238   -1.350324
    117          6           0       15.967460   -1.924361   -0.479138
    118          8           0       14.820828   -2.248840   -0.689873
    119          6           0       17.105410   -2.884678   -0.112419
    120          6           0       16.802143   -3.660246    1.173830
    121          8           0       16.916671   -3.207032    2.282896
    122          8           0       16.315575   -4.904315    0.850429
    123          6           0       16.006089   -5.720759    2.046765
    124          1           0       23.840261   -2.331969    1.142071
    125          1           0       23.515571    3.915345   -0.370758
    126          1           0       17.380381    3.603334   -0.959593
    127          1           0       19.351285   -4.162608    1.721935
    128          1           0       22.213596   -4.380612    1.143354
    129          1           0       21.498271   -2.493683    3.404074
    130          1           0       22.293735   -3.903034    3.467549
    131          1           0       20.503476   -3.934850    3.418425
    132          1           0       20.620325   -4.456676   -1.102440
    133          1           0       18.994164   -4.880790   -0.748153
    134          1           0       19.510590   -6.876532    0.154929
    135          1           0       20.998551   -6.202914    0.895975
    136          1           0       25.728176   -1.619435    1.417187
    137          1           0       26.465146   -0.020290    1.971842
    138          1           0       26.618058   -0.610239    0.319504
    139          1           0       27.599171    2.017411    1.485288
    140          1           0       28.136105    2.976815    0.066174
    141          1           0       27.639905    1.385294   -0.175234
    142          1           0       21.536074    4.962565   -1.693488
    143          1           0       19.250015    5.182620    0.263424
    144          1           0       22.746725    5.574722    0.602196
    145          1           0       21.144554    6.102223    1.124352
    146          1           0       21.987203    6.892212   -0.236638
    147          1           0       19.331607    6.540629   -1.824965
    148          1           0       17.784587    5.805159   -1.523541
    149          1           0       18.080803    4.237518   -3.278990
    150          1           0       19.850064    4.616765   -3.411573
    151          1           0       18.593297    5.725199   -3.957716
    152          1           0       15.509460    2.087002   -2.049208
    153          1           0       14.442884    1.914599   -0.737186
    154          1           0       14.603959    0.513668   -1.823763
    155          1           0       17.232762   -3.578389   -0.944125
    156          1           0       15.135054   -6.337075    1.824958
    157          1           0       15.630689   -5.178086    2.914596
    158          1           0       16.826337   -6.399107    2.279320
 ---------------------------------------------------------------------

 SCF Done:  E(RPBE1PBE) =  -4067.41375872     A.U. after   16 cycles

 Excitation energies and oscillator strengths:

 Excited State   1:      Singlet-A      1.8106 eV  684.78 nm  f=0.3736  <S**2>=0.000
     309 -> 315       -0.15520
     311 -> 313        0.69950
     311 <- 313       -0.12510
 This state for optimization and/or second-order correction.
 Total Energy, E(TD-HF/TD-DFT) =  -4067.34722150
 Copying the excited state density for this state as the 1-particle RhoCI density.

 Excited State   2:      Singlet-A      1.8630 eV  665.52 nm  f=0.0000  <S**2>=0.000
     312 -> 313        0.70711

 Excited State   3:      Singlet-A      1.8847 eV  657.85 nm  f=0.3798  <S**2>=0.000
     310 -> 316       -0.17972
     312 -> 314        0.69127
     312 <- 314       -0.10354

 Excited State   4:      Singlet-A      2.0509 eV  604.55 nm  f=0.0000  <S**2>=0.000
     311 -> 314        0.70710

 Excited State   5:      Singlet-A      2.2484 eV  551.44 nm  f=0.1072  <S**2>=0.000
     310 -> 314        0.65568
     312 -> 316        0.25365

 The electronic state is 1-A.
 Alpha  occ. eigenvalues --  -46.92136 -46.90885 -19.26472 -19.25475 -19.20649
 Alpha  occ. eigenvalues --  -19.19533 -19.19459 -19.19127 -19.18868 -19.18867
 Alpha  occ. eigenvalues --  -14.42127 -14.41575 -14.41351 -14.40760 -14.38854
 Alpha  occ. eigenvalues --  -14.38788 -14.38579 -14.38442 -10.36817 -10.35433
 Alpha  occ. eigenvalues --  -10.33213 -10.32464 -10.31934 -10.31719 -10.29745
 Alpha  occ. eigenvalues --  -10.29458 -10.29077 -10.29011 -10.28693 -10.28505
 Alpha  occ. eigenvalues --  -10.28353 -10.28240 -10.27849 -10.27825 -10.27824
 Alpha  occ. eigenvalues --  -10.27510 -10.27317 -10.27160 -10.27136 -10.26952
 Alpha  occ. eigenvalues --  -10.26547 -10.26509 -10.26465 -10.26430 -10.26371
 Alpha  occ. eigenvalues --  -10.26212 -10.26173 -10.25744 -10.25631 -10.25613
 Alpha  occ. eigenvalues --  -10.25592 -10.25590 -10.25584 -10.25579 -10.25491
 Alpha  occ. eigenvalues --  -10.25404 -10.25274 -10.25203 -10.25100 -10.25056
 Alpha  occ. eigenvalues --  -10.24980 -10.24939 -10.24926 -10.24676 -10.24572
 Alpha  occ. eigenvalues --  -10.24530 -10.24286 -10.24258 -10.24041 -10.23996
 Alpha  occ. eigenvalues --  -10.23864 -10.23861 -10.23535 -10.23511 -10.23499
 Alpha  occ. eigenvalues --  -10.23295 -10.23261 -10.23237 -10.23181 -10.23180
 Alpha  occ. eigenvalues --  -10.23093 -10.22897 -10.22598 -10.22539 -10.22502
 Alpha  occ. eigenvalues --  -10.22166  -3.14276  -3.13239  -1.87103  -1.86665
 Alpha  occ. eigenvalues --   -1.86486  -1.86085  -1.85632  -1.85461  -1.11615
 Alpha  occ. eigenvalues --   -1.11600  -1.05128  -1.05051  -1.05022  -1.03627
 Alpha  occ. eigenvalues --   -1.03081  -1.01877  -1.00036  -0.99789  -0.98505
 Alpha  occ. eigenvalues --   -0.98367  -0.97995  -0.97718  -0.97032  -0.96705
 Alpha  occ. eigenvalues --   -0.88268  -0.87595  -0.83749  -0.83371  -0.83107
 Alpha  occ. eigenvalues --   -0.82915  -0.82809  -0.82453  -0.82176  -0.81741
 Alpha  occ. eigenvalues --   -0.81563  -0.81476  -0.80879  -0.80647  -0.78621
 Alpha  occ. eigenvalues --   -0.78317  -0.78251  -0.78008  -0.76787  -0.76692
 Alpha  occ. eigenvalues --   -0.75804  -0.75732  -0.75485  -0.75175  -0.74893
 Alpha  occ. eigenvalues --   -0.74707  -0.72751  -0.72725  -0.71941  -0.71845
 Alpha  occ. eigenvalues --   -0.71501  -0.70959  -0.70474  -0.70454  -0.69573
 Alpha  occ. eigenvalues --   -0.69186  -0.67622  -0.67002  -0.66243  -0.66220
 Alpha  occ. eigenvalues --   -0.64405  -0.63853  -0.63636  -0.63300  -0.62806
 Alpha  occ. eigenvalues --   -0.62652  -0.61368  -0.60544  -0.60221  -0.59856
 Alpha  occ. eigenvalues --   -0.59385  -0.59227  -0.59175  -0.58968  -0.58681
 Alpha  occ. eigenvalues --   -0.58606  -0.57121  -0.56607  -0.54794  -0.54564
 Alpha  occ. eigenvalues --   -0.54553  -0.54054  -0.53935  -0.53695  -0.53481
 Alpha  occ. eigenvalues --   -0.53067  -0.52908  -0.52880  -0.52391  -0.51949
 Alpha  occ. eigenvalues --   -0.51130  -0.51076  -0.50439  -0.50206  -0.50149
 Alpha  occ. eigenvalues --   -0.49801  -0.49646  -0.49233  -0.49216  -0.48805
 Alpha  occ. eigenvalues --   -0.48567  -0.48004  -0.47967  -0.47827  -0.47586
 Alpha  occ. eigenvalues --   -0.47382  -0.47312  -0.47262  -0.46844  -0.46789
 Alpha  occ. eigenvalues --   -0.46749  -0.46292  -0.46266  -0.45881  -0.45728
 Alpha  occ. eigenvalues --   -0.45628  -0.45387  -0.44993  -0.44871  -0.44733
 Alpha  occ. eigenvalues --   -0.44571  -0.44550  -0.44430  -0.44255  -0.44183
 Alpha  occ. eigenvalues --   -0.44060  -0.43830  -0.43805  -0.43561  -0.43547
 Alpha  occ. eigenvalues --   -0.43461  -0.43390  -0.42963  -0.42951  -0.42717
 Alpha  occ. eigenvalues --   -0.42556  -0.42352  -0.42181  -0.42129  -0.41824
 Alpha  occ. eigenvalues --   -0.41795  -0.41587  -0.41349  -0.41312  -0.41104
 Alpha  occ. eigenvalues --   -0.40850  -0.40831  -0.40746  -0.40581  -0.40541
 Alpha  occ. eigenvalues --   -0.40163  -0.40124  -0.39929  -0.39857  -0.39756
 Alpha  occ. eigenvalues --   -0.39469  -0.39412  -0.39206  -0.39070  -0.38978
 Alpha  occ. eigenvalues --   -0.38861  -0.38661  -0.38553  -0.38543  -0.38455
 Alpha  occ. eigenvalues --   -0.38329  -0.38197  -0.38191  -0.37986  -0.37742
 Alpha  occ. eigenvalues --   -0.37688  -0.37399  -0.37276  -0.37171  -0.36864
 Alpha  occ. eigenvalues --   -0.36798  -0.36694  -0.36653  -0.36525  -0.36338
 Alpha  occ. eigenvalues --   -0.35971  -0.35768  -0.35610  -0.35568  -0.35311
 Alpha  occ. eigenvalues --   -0.35153  -0.34904  -0.34721  -0.34569  -0.33868
 Alpha  occ. eigenvalues --   -0.33416  -0.33345  -0.32959  -0.32830  -0.32704
 Alpha  occ. eigenvalues --   -0.32456  -0.32274  -0.31962  -0.31820  -0.31660
 Alpha  occ. eigenvalues --   -0.31479  -0.31425  -0.29824  -0.29515  -0.29476
 Alpha  occ. eigenvalues --   -0.29094  -0.28744  -0.28453  -0.27046  -0.26959
 Alpha  occ. eigenvalues --   -0.26183  -0.25969  -0.25900  -0.25760  -0.25549
 Alpha  occ. eigenvalues --   -0.25396  -0.25000  -0.24795  -0.21448  -0.20733
 Alpha  occ. eigenvalues --   -0.18768  -0.18671
 Alpha virt. eigenvalues --   -0.11497  -0.10908  -0.05091  -0.04861  -0.03818
 Alpha virt. eigenvalues --   -0.03797  -0.02120  -0.02050  -0.00582   0.00212
 Alpha virt. eigenvalues --    0.00535   0.01015   0.01328   0.01387   0.01742

 Mulliken charges:
               1
     1  Mg  11.998533
     2  C    5.975181
     3  C    5.995388
     4  C    6.029660
     5  C    6.013508
     6  N    6.988163
     7  C    6.038934
     8  C    5.985298
     9  C    6.006724
    10  C    5.975305
    11  C    6.004206
    12  C    5.997183
    13  C    6.002415
    14  H    0.995920
    15  N    7.006054
    16  C    5.963722
    17  C    5.976370
    18  C    5.992432
    19  C    5.955115
    20  C    6.004750
    21  C    5.987501
    22  O    7.974916
    23  C    6.005564
    24  N    7.017896
    25  C    5.961496
    26  C    6.007929
    27  C    5.994678
    28  C    6.020924
    29  C    6.001071
    30  C    5.992639
    31  C    5.999395
    32  N    6.996238
    33  C    6.022574
    34  C    6.034981
    35  C    5.998721
    36  C    6.031597
    37  C    5.995943
    38  C    6.015346
    39  O    8.026324
    40  C    6.002820
    41  C    6.001799
    42  O    8.003877
    43  O    8.001689
    44  C    5.999120
    45  H    0.983683
    46  H    0.995711
    47  H    1.013948
    48  H    1.001860
    49  H    0.998868
    50  H    0.999764
    51  H    0.985452
    52  H    1.001592
    53  H    1.005208
    54  H    0.992610
    55  H    1.006937
    56  H    1.002277
    57  H    0.981698
    58  H    0.982795
    59  H    0.984818
    60  H    0.986366
    61  H    0.994329
    62  H    0.994514
    63  H    1.001573
    64  H    1.001203
    65  H    0.987918
    66  H    0.994484
    67  H    1.007452
    68  H    0.995336
    69  H    1.015155
    70  H    1.007188
    71  H    1.004573
    72  H    0.999457
    73  H    1.022006
    74  H    1.017623
    75  H    1.015891
    76  H    1.007624
    77  H    1.005019
    78  H    1.004966
    79  H    1.000203
    80  Mg  11.999984
    81  C    5.999993
    82  C    5.999926
    83  C    6.000021
    84  C    6.000084
    85  N    6.999971
    86  C    5.999965
    87  C    6.000040
    88  C    5.999953
    89  C    6.000197
    90  C    5.999968
    91  C    6.000014
    92  C    5.999997
    93  H    0.999972
    94  N    7.000012
    95  C    6.000139
    96  C    6.000048
    97  C    6.000113
    98  C    6.000048
    99  C    5.999979
   100  C    6.000120
   101  O    8.000116
   102  C    5.999973
   103  N    7.000062
   104  C    6.000078
   105  C    5.999964
   106  C    6.000063
   107  C    5.999817
   108  C    5.999977
   109  C    6.000001
   110  C    6.000038
   111  N    6.999987
   112  C    5.999888
   113  C    5.999788
   114  C    6.000056
   115  C    5.999873
   116  C    6.000066
   117  C    5.999852
   118  O    7.999823
   119  C    6.000052
   120  C    5.999971
   121  O    8.000007
   122  O    7.999975
   123  C    5.999993
   124  H    1.000082
   125  H    1.000033
   126  H    0.999919
   127  H    1.000014
   128  H    1.000013
   129  H    1.000018
   130  H    1.000035
   131  H    1.000084
   132  H    0.999951
   133  H    1.000007
   134  H    1.000004
   135  H    1.000005
   136  H    1.000096
   137  H    1.000111
   138  H    1.000084
   139  H    1.000068
   140  H    1.000076
   141  H    1.000022
   142  H    0.999977
   143  H    0.999996
   144  H    0.999986
   145  H    1.000061
   146  H    1.000027
   147  H    0.999971
   148  H    0.999997
   149  H    1.000006
   150  H    0.999964
   151  H    0.999937
   152  H    0.999863
   153  H    0.999860
   154  H    0.999865
   155  H    0.999921
   156  H    0.999961
   157  H    1.000025
   158  H    0.999997
 Sum of Mulliken charges = 624.00000

 Dipole moment (field-independent basis, Debye):
    X=              3.0807    Y=              0.3243    Z=             -9.9609  Tot=             10.4315
 Quadrupole moment (field-independent basis, Debye-Ang):
   XX=           -120.0983   YY=              3.2877   ZZ=             -6.1651
   XY=             -3.6934   XZ=            202.6949   YZ=             -5.5454

 Normal termination of Gaussian 16 at Fri Oct 15 03:50:58 2021.
