 Gaussian 16, Revision A.03,
 Gaussian 16:  ES64L-G16RevA.03 25-Dec-2016

 --------------------------------------------------------
 #p PBE1PBE/Def2SVP td=(nstates=5) density=(transition=1)
 --------------------------------------------------------

 --------------------------------
 TDDFT excited states in gaussian
 --------------------------------
 Symbolic Z-matrix:
 Charge =  0 Multiplicity = 1

                         Standard orientation:
 ---------------------------------------------------------------------
 Center     Atomic      Atomic             Coordinates (Angstroms)
 Number     Number       Type             X           Y           Z
 ---------------------------------------------------------------------
      1         12           0       24.786845   -0.827538    0.253071
      2          6           0       24.799780    2.208966   -1.669952
      3          6           0       25.288671    1.232588    3.094714
      4          6           0       24.942038   -3.656288    2.295227
      5          6           0       24.709718   -2.685127   -2.522487
      6          7           0       25.226408    1.529429    0.587554
      7          6           0       25.053625    2.508836   -0.325800
      8          6           0       25.348141    3.907245    0.326807
      9          6           0       25.702207    3.468863    1.792789
     10          6           0       25.311805    1.975782    1.883519
     11          6           0       27.202603    3.750379    2.153524
     12          6           0       24.160380    4.867359    0.266200
     13          6           0       24.469702    6.276781   -0.119095
     14          1           0       23.309007    7.266551   -0.295278
     15          7           0       24.862598   -1.183694    2.362944
     16          6           0       25.077009   -0.203880    3.326597
     17          6           0       25.067329   -0.842916    4.627569
     18          6           0       24.872296   -2.203588    4.457553
     19          6           0       24.962324   -2.422603    2.974544
     20          6           0       25.376701   -0.149751    5.923301
     21          6           0       24.796770   -3.385666    5.508456
     22          8           0       24.625772   -4.559424    5.286723
     23          6           0       24.767892   -3.041767    6.981936
     24          7           0       24.972730   -2.824329   -0.026827
     25          6           0       25.019136   -3.837403    0.895082
     26          6           0       25.305587   -5.209604    0.241735
     27          6           0       24.983648   -4.937108   -1.289105
     28          6           0       24.848116   -3.366764   -1.271606
     29          6           0       26.743449   -5.741294    0.542427
     30          6           0       23.700666   -5.648082   -1.817404
     31          6           0       22.379124   -5.139898   -1.245491
     32          7           0       24.788992   -0.420442   -1.678563
     33          6           0       24.683127   -1.310286   -2.783671
     34          6           0       24.666792   -0.567047   -4.041665
     35          6           0       24.655952    0.781458   -3.642270
     36          6           0       24.717028    0.840070   -2.224752
     37          6           0       24.600754   -1.142699   -5.379678
     38          6           0       24.624595    2.130591   -4.197749
     39          8           0       24.512122    2.489470   -5.357937
     40          6           0       24.807723    3.138666   -2.939654
     41          6           0       23.589878    4.040173   -3.156057
     42          8           0       22.388163    3.772204   -2.976618
     43          8           0       23.999151    5.196028   -3.649303
     44          6           0       23.035425    6.369714   -3.689500
     45          1           0       25.368453    1.881706    3.968857
     46          1           0       24.990192   -4.596155    2.850689
     47          1           0       24.610580   -3.350653   -3.382202
     48          1           0       26.132862    4.332149   -0.298206
     49          1           0       25.074102    3.974785    2.527247
     50          1           0       27.374425    4.357464    3.042356
     51          1           0       27.808671    4.078558    1.308871
     52          1           0       27.782458    2.893523    2.497285
     53          1           0       23.992677    5.054219    1.327036
     54          1           0       23.278863    4.431752   -0.205496
     55          1           0       25.108890    6.478540   -0.980176
     56          1           0       25.032845    6.644031    0.738937
     57          1           0       25.432931    0.930590    5.792376
     58          1           0       26.302203   -0.463859    6.408387
     59          1           0       24.627932   -0.260982    6.707738
     60          1           0       23.916564   -2.414226    7.245404
     61          1           0       25.742458   -2.571109    7.111944
     62          1           0       24.842242   -4.016479    7.464162
     63          1           0       24.643432   -5.891003    0.777073
     64          1           0       25.814982   -4.984798   -1.992809
     65          1           0       26.740708   -6.614880    1.194250
     66          1           0       27.489900   -5.033025    0.900253
     67          1           0       27.077970   -6.003749   -0.461387
     68          1           0       23.900332   -6.719726   -1.820397
     69          1           0       23.628955   -5.432792   -2.883387
     70          1           0       22.457654   -4.407972   -0.442437
     71          1           0       21.887967   -6.017879   -0.826686
     72          1           0       21.754320   -4.568742   -1.931188
     73          1           0       24.606366   -0.418243   -6.194320
     74          1           0       23.675175   -1.718102   -5.392296
     75          1           0       25.432146   -1.842399   -5.476231
     76          1           0       25.659825    3.806742   -3.064810
     77          1           0       23.657575    7.255989   -3.816120
     78          1           0       22.507333    6.517464   -2.747976
     79          1           0       22.266491    6.274923   -4.457098
     80         12           0      -25.306430   -0.609570   -0.314362
     81          6           0      -23.081705    2.341955    0.076299
     82          6           0      -27.303766    1.020007    1.871740
     83          6           0      -26.980909   -3.294577   -0.500054
     84          6           0      -22.527918   -2.195581   -1.875887
     85          7           0      -25.147985    1.405392    0.851531
     86          6           0      -24.272791    2.467145    0.696975
     87          6           0      -24.727083    3.771115    1.362786
     88          6           0      -25.831413    3.185716    2.296118
     89          6           0      -26.141958    1.771817    1.668852
     90          6           0      -25.454214    3.076919    3.739998
     91          6           0      -25.176308    4.937459    0.420052
     92          6           0      -24.963639    6.338980    0.886132
     93          1           0      -26.061610    7.326864    0.504870
     94          7           0      -26.995697   -1.090359    0.545233
     95          6           0      -27.747271   -0.258306    1.401178
     96          6           0      -29.007486   -0.901699    1.637331
     97          6           0      -28.951111   -2.098616    0.798953
     98          6           0      -27.638955   -2.170289    0.265156
     99          6           0      -30.196431   -0.286765    2.464442
    100          6           0      -30.084397   -3.053278    0.578493
    101          8           0      -29.952117   -4.098004   -0.104481
    102          6           0      -31.456031   -2.822166    1.098883
    103          7           0      -24.824258   -2.532015   -0.915810
    104          6           0      -25.724398   -3.517238   -0.921725
    105          6           0      -25.197030   -4.853904   -1.535135
    106          6           0      -23.970440   -4.279487   -2.337310
    107          6           0      -23.711191   -2.915007   -1.641960
    108          6           0      -24.743940   -5.869941   -0.437783
    109          6           0      -24.305894   -4.053131   -3.871241
    110          6           0      -24.877031   -5.220895   -4.702822
    111          7           0      -23.246848   -0.061858   -0.851537
    112          6           0      -22.298910   -0.813415   -1.536597
    113          6           0      -21.078993   -0.051696   -1.668140
    114          6           0      -21.354100    1.193468   -1.088584
    115          6           0      -22.656476    1.127864   -0.521583
    116          6           0      -19.848085   -0.453061   -2.409157
    117          6           0      -20.787084    2.507566   -0.815567
    118          8           0      -19.726020    3.049968   -1.094675
    119          6           0      -22.002119    3.305584   -0.109697
    120          6           0      -21.441623    3.876791    1.102855
    121          8           0      -20.975535    3.257431    2.072100
    122          8           0      -21.104252    5.172223    0.833498
    123          6           0      -20.467649    5.954705    1.843904
    124          1           0      -27.963153    1.662231    2.459589
    125          1           0      -27.524004   -4.237406   -0.590627
    126          1           0      -21.717116   -2.729912   -2.376200
    127          1           0      -23.897144    4.122455    1.976231
    128          1           0      -26.767824    3.727664    2.167071
    129          1           0      -25.287314    2.019498    3.945292
    130          1           0      -26.293387    3.386471    4.362784
    131          1           0      -24.567505    3.619247    4.067629
    132          1           0      -26.253658    4.838577    0.290326
    133          1           0      -24.717855    4.761197   -0.552642
    134          1           0      -24.036035    6.631117    0.394295
    135          1           0      -24.648926    6.391008    1.928504
    136          1           0      -31.040628    0.073519    1.877286
    137          1           0      -29.847031    0.487900    3.146496
    138          1           0      -30.488767   -1.139505    3.078461
    139          1           0      -31.454318   -3.030371    2.169118
    140          1           0      -32.092623   -3.533143    0.571526
    141          1           0      -31.725862   -1.805144    0.816297
    142          1           0      -26.018888   -5.250336   -2.132318
    143          1           0      -23.050555   -4.859905   -2.273210
    144          1           0      -25.448054   -6.701299   -0.480107
    145          1           0      -24.647810   -5.470191    0.571181
    146          1           0      -23.775321   -6.188568   -0.825558
    147          1           0      -23.382680   -3.796742   -4.390349
    148          1           0      -24.930892   -3.161270   -3.913053
    149          1           0      -25.832744   -4.851448   -5.074299
    150          1           0      -25.049421   -6.008507   -3.968743
    151          1           0      -24.234026   -5.494437   -5.539240
    152          1           0      -20.158348   -1.318347   -2.995370
    153          1           0      -19.120573   -0.738747   -1.649465
    154          1           0      -19.403295    0.347301   -3.000470
    155          1           0      -22.360936    4.087870   -0.778314
    156          1           0      -20.350767    5.397479    2.773647
    157          1           0      -21.153660    6.780154    2.034380
    158          1           0      -19.551432    6.411354    1.472297
 ---------------------------------------------------------------------

 SCF Done:  E(RPBE1PBE) =  -4067.35882808     A.U. after   16 cycles

 Excitation energies and oscillator strengths:

 Excited State   1:      Singlet-A      1.7332 eV  715.35 nm  f=0.0000  <S**2>=0.000
     312 -> 313        0.70711
 This state for optimization and/or second-order correction.
 Total Energy, E(TD-HF/TD-DFT) =  -4067.29513405
 Copying the excited state density for this state as the 1-particle RhoCI density.

 Excited State   2:      Singlet-A      1.8202 eV  681.17 nm  f=0.2391  <S**2>=0.000
     310 -> 315        0.13740
     311 -> 313       -0.44126
     312 -> 314        0.53776

 Excited State   3:      Singlet-A      1.8205 eV  681.06 nm  f=0.4830  <S**2>=0.000
     309 -> 316       -0.11762
     310 -> 315        0.11149
     311 -> 313        0.54411
     312 -> 314        0.43609

 Excited State   4:      Singlet-A      2.1467 eV  577.56 nm  f=0.0000  <S**2>=0.000
     311 -> 314        0.70711

 Excited State   5:      Singlet-A      2.2320 eV  555.49 nm  f=0.0920  <S**2>=0.000
     310 -> 314        0.63923
     312 -> 315       -0.29204

 The electronic state is 1-A.
 Alpha  occ. eigenvalues --  -46.92320 -46.91695 -19.25561 -19.25365 -19.20025
 Alpha  occ. eigenvalues --  -19.19637 -19.19612 -19.19539 -19.18254 -19.17787
 Alpha  occ. eigenvalues --  -14.41945 -14.41659 -14.41096 -14.41077 -14.39714
 Alpha  occ. eigenvalues --  -14.39398 -14.39398 -14.39205 -10.36024 -10.35496
 Alpha  occ. eigenvalues --  -10.33037 -10.32668 -10.32590 -10.31221 -10.29409
 Alpha  occ. eigenvalues --  -10.29218 -10.29109 -10.29071 -10.28967 -10.28803
 Alpha  occ. eigenvalues --  -10.28664 -10.28561 -10.28430 -10.28365 -10.28309
 Alpha  occ. eigenvalues --  -10.28271 -10.28269 -10.27983 -10.27816 -10.27660
 Alpha  occ. eigenvalues --  -10.27642 -10.26848 -10.26704 -10.26651 -10.26534
 Alpha  occ. eigenvalues --  -10.26397 -10.26382 -10.26284 -10.26220 -10.26197
 Alpha  occ. eigenvalues --  -10.26184 -10.26053 -10.26015 -10.26002 -10.25970
 Alpha  occ. eigenvalues --  -10.25932 -10.25827 -10.25759 -10.25722 -10.25496
 Alpha  occ. eigenvalues --  -10.25448 -10.25240 -10.25155 -10.25114 -10.25020
 Alpha  occ. eigenvalues --  -10.24902 -10.24583 -10.24562 -10.24473 -10.24250
 Alpha  occ. eigenvalues --  -10.24196 -10.24040 -10.23678 -10.23639 -10.23570
 Alpha  occ. eigenvalues --  -10.23555 -10.23478 -10.23458 -10.23452 -10.23196
 Alpha  occ. eigenvalues --  -10.23173 -10.23142 -10.23071 -10.22945 -10.22863
 Alpha  occ. eigenvalues --  -10.22801  -3.14557  -3.13962  -1.87367  -1.86928
 Alpha  occ. eigenvalues --   -1.86803  -1.86789  -1.86354  -1.86191  -1.11210
 Alpha  occ. eigenvalues --   -1.10718  -1.06127  -1.04878  -1.04807  -1.02272
 Alpha  occ. eigenvalues --   -1.01701  -1.00082  -0.99659  -0.98593  -0.98369
 Alpha  occ. eigenvalues --   -0.98339  -0.97720  -0.97156  -0.96845  -0.96359
 Alpha  occ. eigenvalues --   -0.87965  -0.85198  -0.83741  -0.83466  -0.83122
 Alpha  occ. eigenvalues --   -0.83001  -0.82369  -0.82269  -0.81795  -0.81690
 Alpha  occ. eigenvalues --   -0.81220  -0.81152  -0.80737  -0.80533  -0.78979
 Alpha  occ. eigenvalues --   -0.78370  -0.78299  -0.77841  -0.77411  -0.76617
 Alpha  occ. eigenvalues --   -0.76360  -0.75637  -0.75464  -0.75312  -0.75098
 Alpha  occ. eigenvalues --   -0.74478  -0.72889  -0.72404  -0.71737  -0.71597
 Alpha  occ. eigenvalues --   -0.71593  -0.71229  -0.70542  -0.70257  -0.69820
 Alpha  occ. eigenvalues --   -0.69463  -0.67759  -0.67036  -0.66066  -0.65357
 Alpha  occ. eigenvalues --   -0.64389  -0.63641  -0.63145  -0.63031  -0.62551
 Alpha  occ. eigenvalues --   -0.61946  -0.61403  -0.60636  -0.60082  -0.59869
 Alpha  occ. eigenvalues --   -0.59603  -0.59583  -0.59494  -0.59118  -0.58968
 Alpha  occ. eigenvalues --   -0.58632  -0.56570  -0.56379  -0.55401  -0.54341
 Alpha  occ. eigenvalues --   -0.54093  -0.53963  -0.53904  -0.53463  -0.53308
 Alpha  occ. eigenvalues --   -0.52889  -0.52371  -0.52353  -0.51946  -0.50625
 Alpha  occ. eigenvalues --   -0.50392  -0.50257  -0.50134  -0.49977  -0.49615
 Alpha  occ. eigenvalues --   -0.49415  -0.49199  -0.49134  -0.48728  -0.48486
 Alpha  occ. eigenvalues --   -0.48231  -0.47835  -0.47790  -0.47717  -0.47511
 Alpha  occ. eigenvalues --   -0.47302  -0.47242  -0.47038  -0.47005  -0.46941
 Alpha  occ. eigenvalues --   -0.46621  -0.46446  -0.46183  -0.46008  -0.45761
 Alpha  occ. eigenvalues --   -0.45554  -0.45522  -0.45443  -0.44886  -0.44698
 Alpha  occ. eigenvalues --   -0.44540  -0.44394  -0.44369  -0.44345  -0.44187
 Alpha  occ. eigenvalues --   -0.44026  -0.43860  -0.43852  -0.43827  -0.43543
 Alpha  occ. eigenvalues --   -0.43435  -0.43200  -0.43054  -0.42980  -0.42796
 Alpha  occ. eigenvalues --   -0.42726  -0.42507  -0.42279  -0.42221  -0.42134
 Alpha  occ. eigenvalues --   -0.41943  -0.41483  -0.41333  -0.41249  -0.41044
 Alpha  occ. eigenvalues --   -0.41042  -0.40898  -0.40879  -0.40716  -0.40550
 Alpha  occ. eigenvalues --   -0.40279  -0.40082  -0.39913  -0.39884  -0.39683
 Alpha  occ. eigenvalues --   -0.39625  -0.39517  -0.39250  -0.39205  -0.38983
 Alpha  occ. eigenvalues --   -0.38801  -0.38780  -0.38483  -0.38398  -0.38232
 Alpha  occ. eigenvalues --   -0.38134  -0.37920  -0.37870  -0.37856  -0.37752
 Alpha  occ. eigenvalues --   -0.37632  -0.37507  -0.37210  -0.37028  -0.36954
 Alpha  occ. eigenvalues --   -0.36843  -0.36713  -0.36370  -0.36214  -0.36125
 Alpha  occ. eigenvalues --   -0.35714  -0.35694  -0.35513  -0.35248  -0.35124
 Alpha  occ. eigenvalues --   -0.34688  -0.34526  -0.34357  -0.34210  -0.34007
 Alpha  occ. eigenvalues --   -0.33546  -0.33546  -0.33101  -0.33041  -0.32758
 Alpha  occ. eigenvalues --   -0.32512  -0.32236  -0.31706  -0.31487  -0.31064
 Alpha  occ. eigenvalues --   -0.30668  -0.30644  -0.29824  -0.29094  -0.29077
 Alpha  occ. eigenvalues --   -0.28656  -0.28654  -0.27613  -0.27204  -0.26901
 Alpha  occ. eigenvalues --   -0.26260  -0.26065  -0.25827  -0.25737  -0.25665
 Alpha  occ. eigenvalues --   -0.25506  -0.25487  -0.24708  -0.21229  -0.21025
 Alpha  occ. eigenvalues --   -0.19295  -0.18622
 Alpha virt. eigenvalues --   -0.11988  -0.11142  -0.05481  -0.04414  -0.03918
 Alpha virt. eigenvalues --   -0.03578  -0.02226  -0.02041  -0.01010  -0.00456
 Alpha virt. eigenvalues --    0.00620   0.00877   0.00944   0.01376   0.01534

 Mulliken charges:
               1
     1  Mg  12.000000
     2  C    6.000000
     3  C    6.000000
     4  C    6.000000
     5  C    6.000000
     6  N    7.000000
     7  C    6.000000
     8  C    6.000000
     9  C    6.000000
    10  C    6.000000
    11  C    6.000000
    12  C    6.000000
    13  C    6.000000
    14  H    1.000000
    15  N    7.000000
    16  C    6.000000
    17  C    6.000000
    18  C    6.000000
    19  C    6.000000
    20  C    6.000000
    21  C    6.000000
    22  O    8.000000
    23  C    6.000000
    24  N    7.000000
    25  C    6.000000
    26  C    6.000000
    27  C    6.000000
    28  C    6.000000
    29  C    6.000000
    30  C    6.000000
    31  C    6.000000
    32  N    7.000000
    33  C    6.000000
    34  C    6.000000
    35  C    6.000000
    36  C    6.000000
    37  C    6.000000
    38  C    6.000000
    39  O    8.000000
    40  C    6.000000
    41  C    6.000000
    42  O    8.000000
    43  O    8.000000
    44  C    6.000000
    45  H    1.000000
    46  H    1.000000
    47  H    1.000000
    48  H    1.000000
    49  H    1.000000
    50  H    1.000000
    51  H    1.000000
    52  H    1.000000
    53  H    1.000000
    54  H    1.000000
    55  H    1.000000
    56  H    1.000000
    57  H    1.000000
    58  H    1.000000
    59  H    1.000000
    60  H    1.000000
    61  H    1.000000
    62  H    1.000000
    63  H    1.000000
    64  H    1.000000
    65  H    1.000000
    66  H    1.000000
    67  H    1.000000
    68  H    1.000000
    69  H    1.000000
    70  H    1.000000
    71  H    1.000000
    72  H    1.000000
    73  H    1.000000
    74  H    1.000000
    75  H    1.000000
    76  H    1.000000
    77  H    1.000000
    78  H    1.000000
    79  H    1.000000
    80  Mg  12.000000
    81  C    6.000000
    82  C    6.000000
    83  C    6.000000
    84  C    6.000000
    85  N    7.000000
    86  C    6.000000
    87  C    6.000000
    88  C    6.000000
    89  C    6.000000
    90  C    6.000000
    91  C    6.000000
    92  C    6.000000
    93  H    1.000000
    94  N    7.000000
    95  C    6.000000
    96  C    6.000000
    97  C    6.000000
    98  C    6.000000
    99  C    6.000000
   100  C    6.000000
   101  O    8.000000
   102  C    6.000000
   103  N    7.000000
   104  C    6.000000
   105  C    6.000000
   106  C    6.000000
   107  C    6.000000
   108  C    6.000000
   109  C    6.000000
   110  C    6.000000
   111  N    7.000000
   112  C    6.000000
   113  C    6.000000
   114  C    6.000000
   115  C    6.000000
   116  C    6.000000
   117  C    6.000000
   118  O    8.000000
   119  C    6.000000
   120  C    6.000000
   121  O    8.000000
   122  O    8.000000
   123  C    6.000000
   124  H    1.000000
   125  H    1.000000
   126  H    1.000000
   127  H    1.000000
   128  H    1.000000
   129  H    1.000000
   130  H    1.000000
   131  H    1.000000
   132  H    1.000000
   133  H    1.000000
   134  H    1.000000
   135  H    1.000000
   136  H    1.000000
   137  H    1.000000
   138  H    1.000000
   139  H    1.000000
   140  H    1.000000
   141  H    1.000000
   142  H    1.000000
   143  H    1.000000
   144  H    1.000000
   145  H    1.000000
   146  H    1.000000
   147  H    1.000000
   148  H    1.000000
   149  H    1.000000
   150  H    1.000000
   151  H    1.000000
   152  H    1.000000
   153  H    1.000000
   154  H    1.000000
   155  H    1.000000
   156  H    1.000000
   157  H    1.000000
   158  H    1.000000
 Sum of Mulliken charges = 624.00000

 Dipole moment (field-independent basis, Debye):
    X=              0.0000    Y=              0.0000    Z=             -0.0000  Tot=              0.0000
 Quadrupole moment (field-independent basis, Debye-Ang):
   XX=             -0.0000   YY=              0.0000   ZZ=             -0.0000
   XY=             -0.0000   XZ=              0.0000   YZ=              0.0000

 Normal termination of Gaussian 16 at Thu Oct 14 13:52:50 2021.
