 Gaussian 16, Revision A.03,
 Gaussian 16:  ES64L-G16RevA.03 25-Dec-2016

 --------------------------------------------------------
 #p PBE1PBE/Def2SVP td=(nstates=5) density=(transition=1)
 --------------------------------------------------------

 --------------------------------
 TDDFT excited states in gaussian
 --------------------------------
 Symbolic Z-matrix:
 Charge =  0 Multiplicity = 1

                         Standard orientation:
 ---------------------------------------------------------------------
 Center     Atomic      Atomic             Coordinates (Angstroms)
 Number     Number       Type             X           Y           Z
 ---------------------------------------------------------------------
      1         12           0      -24.944603   -0.680993   -0.325104
      2          6           0      -25.175692    2.330956    1.390894
      3          6           0      -24.156210    1.208459   -3.124761
      4          6           0      -25.212003   -3.547508   -2.135583
      5          6           0      -25.914247   -2.353748    2.541527
      6          7           0      -24.750549    1.526178   -0.814959
      7          6           0      -24.851609    2.599530    0.057002
      8          6           0      -24.697858    4.006601   -0.643272
      9          6           0      -24.694955    3.554744   -2.155057
     10          6           0      -24.562933    1.990384   -2.054101
     11          6           0      -25.862550    3.897961   -3.084803
     12          6           0      -23.435334    4.733292   -0.144691
     13          6           0      -23.638240    5.911173    0.771596
     14          1           0      -22.674665    7.098649    0.598423
     15          7           0      -24.538514   -1.187791   -2.294083
     16          6           0      -24.161770   -0.264223   -3.218617
     17          6           0      -23.999418   -1.014361   -4.479302
     18          6           0      -24.385878   -2.346649   -4.265189
     19          6           0      -24.718168   -2.441788   -2.896842
     20          6           0      -23.393727   -0.381459   -5.665877
     21          6           0      -24.490977   -3.490617   -5.230710
     22          8           0      -24.748927   -4.675574   -4.880067
     23          6           0      -24.344259   -3.355792   -6.645900
     24          7           0      -25.393567   -2.630655    0.135441
     25          6           0      -25.414972   -3.650013   -0.766222
     26          6           0      -25.790824   -4.952974   -0.178274
     27          6           0      -25.963409   -4.606382    1.344196
     28          6           0      -25.809501   -3.132068    1.321244
     29          6           0      -26.983255   -5.810653   -0.695017
     30          6           0      -25.006763   -5.418557    2.349997
     31          6           0      -23.547777   -4.980868    2.675457
     32          7           0      -25.489670   -0.192159    1.573376
     33          6           0      -25.821691   -0.972511    2.643213
     34          6           0      -25.882354   -0.197328    3.804514
     35          6           0      -25.713319    1.150631    3.303303
     36          6           0      -25.451276    1.081179    1.949531
     37          6           0      -26.071838   -0.672455    5.243883
     38          6           0      -25.572656    2.503114    3.761007
     39          8           0      -25.541108    3.035386    4.851894
     40          6           0      -25.442643    3.363475    2.455441
     41          6           0      -26.692511    4.113922    2.222375
     42          8           0      -27.501693    3.937575    1.285157
     43          8           0      -26.960806    5.057356    3.151360
     44          6           0      -28.065411    6.046947    2.908756
     45          1           0      -23.971916    1.812225   -4.015090
     46          1           0      -25.350487   -4.491987   -2.666253
     47          1           0      -26.052362   -2.822612    3.518535
     48          1           0      -25.629841    4.572777   -0.636180
     49          1           0      -23.771125    3.953224   -2.574291
     50          1           0      -26.420596    2.995733   -3.336267
     51          1           0      -25.416103    4.170365   -4.040005
     52          1           0      -26.546869    4.663776   -2.718022
     53          1           0      -22.967790    5.134402   -1.044686
     54          1           0      -22.755561    3.987393    0.267185
     55          1           0      -23.531194    5.549681    1.794660
     56          1           0      -24.636975    6.347920    0.762774
     57          1           0      -22.482780   -0.950005   -5.848544
     58          1           0      -23.145520    0.680470   -5.644199
     59          1           0      -24.054186   -0.508974   -6.523531
     60          1           0      -24.919652   -2.468525   -6.908752
     61          1           0      -24.542548   -4.301894   -7.147904
     62          1           0      -23.329565   -3.056800   -6.908892
     63          1           0      -24.863224   -5.495459   -0.358595
     64          1           0      -26.995731   -4.790087    1.639627
     65          1           0      -26.650818   -6.750445   -1.135990
     66          1           0      -27.527735   -5.292770   -1.485325
     67          1           0      -27.736712   -6.008980    0.067178
     68          1           0      -24.917655   -6.381180    1.846041
     69          1           0      -25.658181   -5.496532    3.220573
     70          1           0      -23.260115   -3.998412    2.302009
     71          1           0      -22.771269   -5.722103    2.484369
     72          1           0      -23.532051   -4.949550    3.764104
     73          1           0      -26.934245   -0.202510    5.717807
     74          1           0      -25.203263   -0.342703    5.813687
     75          1           0      -26.103958   -1.755719    5.363477
     76          1           0      -24.721104    4.154509    2.660483
     77          1           0      -27.774967    6.756614    3.683554
     78          1           0      -29.073740    5.655499    3.039380
     79          1           0      -27.983113    6.448879    1.898440
     80         12           0       24.959168   -0.668693    0.333506
     81          6           0       25.549414    2.005800   -1.754703
     82          6           0       23.831941    1.646687    2.810734
     83          6           0       24.708751   -3.117036    2.502741
     84          6           0       26.226194   -2.869766   -2.056779
     85          7           0       24.743106    1.558150    0.423409
     86          6           0       25.011988    2.431049   -0.551951
     87          6           0       24.582951    3.860012   -0.084337
     88          6           0       24.165881    3.682713    1.447285
     89          6           0       24.302797    2.156383    1.608505
     90          6           0       25.084637    4.295069    2.487020
     91          6           0       23.523080    4.536311   -0.966918
     92          6           0       23.951398    5.936330   -1.373347
     93          1           0       22.912945    7.018375   -1.703365
     94          7           0       24.276493   -0.718026    2.346937
     95          6           0       23.820438    0.277686    3.161873
     96          6           0       23.401323   -0.201846    4.402559
     97          6           0       23.750599   -1.597205    4.420252
     98          6           0       24.265777   -1.883133    3.036637
     99          6           0       22.775079    0.664643    5.485559
    100          6           0       23.676834   -2.587156    5.571297
    101          8           0       24.191881   -3.711966    5.420041
    102          6           0       23.125710   -2.215876    6.887261
    103          7           0       25.375151   -2.654520    0.193977
    104          6           0       25.135403   -3.542243    1.222689
    105          6           0       25.533712   -5.032061    0.908381
    106          6           0       25.745653   -4.913386   -0.661230
    107          6           0       25.808342   -3.388565   -0.864975
    108          6           0       26.766435   -5.723768    1.613621
    109          6           0       24.784143   -5.745593   -1.625741
    110          6           0       23.407522   -5.168726   -1.825357
    111          7           0       25.850139   -0.530068   -1.441580
    112          6           0       26.330510   -1.469455   -2.334010
    113          6           0       26.817250   -0.883600   -3.515466
    114          6           0       26.488522    0.463842   -3.327469
    115          6           0       25.891445    0.655915   -2.047510
    116          6           0       27.347548   -1.684159   -4.627598
    117          6           0       26.682677    1.706497   -3.969780
    118          8           0       27.294264    1.925886   -5.017279
    119          6           0       26.049330    2.825913   -2.989597
    120          6           0       27.073060    3.801810   -2.659716
    121          8           0       28.000188    3.651371   -1.897222
    122          8           0       26.932054    4.889838   -3.406796
    123          6           0       27.917794    5.924709   -3.322135
    124          1           0       23.538457    2.365313    3.578227
    125          1           0       24.683269   -4.024667    3.108848
    126          1           0       26.617052   -3.592903   -2.775704
    127          1           0       25.544951    4.369622   -0.128374
    128          1           0       23.224116    4.222896    1.550411
    129          1           0       25.896931    4.895852    2.076851
    130          1           0       25.581233    3.511204    3.058271
    131          1           0       24.493300    4.806306    3.247264
    132          1           0       22.525342    4.587858   -0.530722
    133          1           0       23.389094    3.915279   -1.852308
    134          1           0       24.475836    5.821694   -2.322683
    135          1           0       24.587872    6.299445   -0.566629
    136          1           0       22.497122    1.647469    5.104772
    137          1           0       23.535101    0.893404    6.232967
    138          1           0       21.982037    0.129739    6.006778
    139          1           0       23.491122   -2.888165    7.664355
    140          1           0       22.047020   -2.365160    6.830655
    141          1           0       23.399717   -1.191343    7.137797
    142          1           0       24.682434   -5.710543    0.972467
    143          1           0       26.699318   -5.374646   -0.914824
    144          1           0       27.199147   -5.001808    2.305054
    145          1           0       27.577320   -5.817424    0.890174
    146          1           0       26.608342   -6.680820    2.111614
    147          1           0       24.620569   -6.702095   -1.129906
    148          1           0       25.229262   -5.997598   -2.587514
    149          1           0       23.094214   -5.445158   -2.831492
    150          1           0       23.213169   -4.108716   -1.666808
    151          1           0       22.767120   -5.642344   -1.081249
    152          1           0       26.948571   -2.685299   -4.788826
    153          1           0       28.431038   -1.689209   -4.740167
    154          1           0       27.052187   -1.069853   -5.477801
    155          1           0       25.237110    3.314750   -3.527245
    156          1           0       27.684238    6.657896   -2.549284
    157          1           0       27.889539    6.464000   -4.268775
    158          1           0       28.893136    5.490028   -3.102838
 ---------------------------------------------------------------------

 SCF Done:  E(RPBE1PBE) =  -4067.39775784     A.U. after   16 cycles

 Excitation energies and oscillator strengths:

 Excited State   1:      Singlet-A      1.8654 eV  664.65 nm  f=0.3128  <S**2>=0.000
     310 -> 316        0.16967
     312 -> 314        0.68963
     312 <- 314       -0.10873
 This state for optimization and/or second-order correction.
 Total Energy, E(TD-HF/TD-DFT) =  -4067.32920573
 Copying the excited state density for this state as the 1-particle RhoCI density.

 Excited State   2:      Singlet-A      1.8680 eV  663.71 nm  f=0.4542  <S**2>=0.000
     309 -> 315        0.16509
     311 -> 313        0.69119
     311 <- 313       -0.11081

 Excited State   3:      Singlet-A      1.8903 eV  655.89 nm  f=0.0000  <S**2>=0.000
     312 -> 313        0.70711

 Excited State   4:      Singlet-A      2.1078 eV  588.21 nm  f=0.0000  <S**2>=0.000
     311 -> 314        0.70711

 Excited State   5:      Singlet-A      2.2251 eV  557.22 nm  f=0.1283  <S**2>=0.000
     310 -> 314        0.65909
     312 -> 316       -0.23847

 The electronic state is 1-A.
 Alpha  occ. eigenvalues --  -46.91113 -46.90947 -19.25423 -19.24684 -19.18921
 Alpha  occ. eigenvalues --  -19.18811 -19.18519 -19.18513 -19.18428 -19.18182
 Alpha  occ. eigenvalues --  -14.41849 -14.41687 -14.41479 -14.41416 -14.39342
 Alpha  occ. eigenvalues --  -14.39198 -14.38682 -14.38070 -10.35538 -10.35230
 Alpha  occ. eigenvalues --  -10.31949 -10.31707 -10.31602 -10.31365 -10.29231
 Alpha  occ. eigenvalues --  -10.29231 -10.28930 -10.28911 -10.28751 -10.28593
 Alpha  occ. eigenvalues --  -10.28418 -10.28395 -10.28265 -10.28155 -10.27951
 Alpha  occ. eigenvalues --  -10.27801 -10.27692 -10.26998 -10.26807 -10.26801
 Alpha  occ. eigenvalues --  -10.26402 -10.26395 -10.26297 -10.26143 -10.25995
 Alpha  occ. eigenvalues --  -10.25990 -10.25979 -10.25969 -10.25911 -10.25888
 Alpha  occ. eigenvalues --  -10.25803 -10.25646 -10.25509 -10.25488 -10.25466
 Alpha  occ. eigenvalues --  -10.25322 -10.25261 -10.25208 -10.25120 -10.25066
 Alpha  occ. eigenvalues --  -10.25003 -10.24967 -10.24928 -10.24844 -10.24838
 Alpha  occ. eigenvalues --  -10.24492 -10.24461 -10.24364 -10.24326 -10.24279
 Alpha  occ. eigenvalues --  -10.24172 -10.23928 -10.23836 -10.23782 -10.23668
 Alpha  occ. eigenvalues --  -10.23531 -10.23508 -10.23473 -10.23426 -10.23234
 Alpha  occ. eigenvalues --  -10.23169 -10.23057 -10.22914 -10.22460 -10.22426
 Alpha  occ. eigenvalues --  -10.22394  -3.13471  -3.13240  -1.86312  -1.86092
 Alpha  occ. eigenvalues --   -1.85864  -1.85699  -1.85618  -1.85468  -1.12701
 Alpha  occ. eigenvalues --   -1.09882  -1.04336  -1.03660  -1.03172  -1.02617
 Alpha  occ. eigenvalues --   -1.02579  -0.99886  -0.99540  -0.99296  -0.98774
 Alpha  occ. eigenvalues --   -0.98378  -0.97944  -0.97875  -0.97219  -0.96885
 Alpha  occ. eigenvalues --   -0.87496  -0.86455  -0.83675  -0.83282  -0.83035
 Alpha  occ. eigenvalues --   -0.82742  -0.82627  -0.82622  -0.81955  -0.81900
 Alpha  occ. eigenvalues --   -0.81847  -0.81338  -0.81078  -0.80470  -0.78874
 Alpha  occ. eigenvalues --   -0.78638  -0.78138  -0.77947  -0.77239  -0.76987
 Alpha  occ. eigenvalues --   -0.76721  -0.76531  -0.75566  -0.75312  -0.74984
 Alpha  occ. eigenvalues --   -0.74885  -0.72895  -0.72612  -0.71838  -0.71673
 Alpha  occ. eigenvalues --   -0.71233  -0.71150  -0.70522  -0.70282  -0.69659
 Alpha  occ. eigenvalues --   -0.69638  -0.67932  -0.67568  -0.65897  -0.65788
 Alpha  occ. eigenvalues --   -0.64503  -0.64012  -0.63315  -0.63136  -0.62449
 Alpha  occ. eigenvalues --   -0.62178  -0.61516  -0.61481  -0.59863  -0.59686
 Alpha  occ. eigenvalues --   -0.59511  -0.59439  -0.59224  -0.59155  -0.58921
 Alpha  occ. eigenvalues --   -0.58904  -0.56909  -0.56084  -0.54954  -0.54601
 Alpha  occ. eigenvalues --   -0.54505  -0.54188  -0.53729  -0.53592  -0.53275
 Alpha  occ. eigenvalues --   -0.53171  -0.52843  -0.52260  -0.52219  -0.51849
 Alpha  occ. eigenvalues --   -0.51142  -0.50783  -0.50619  -0.50126  -0.49674
 Alpha  occ. eigenvalues --   -0.49476  -0.49175  -0.48933  -0.48933  -0.48410
 Alpha  occ. eigenvalues --   -0.48128  -0.47842  -0.47809  -0.47319  -0.47273
 Alpha  occ. eigenvalues --   -0.47110  -0.47029  -0.46929  -0.46807  -0.46653
 Alpha  occ. eigenvalues --   -0.46601  -0.46519  -0.46395  -0.45885  -0.45673
 Alpha  occ. eigenvalues --   -0.45418  -0.44971  -0.44939  -0.44806  -0.44801
 Alpha  occ. eigenvalues --   -0.44527  -0.44358  -0.44299  -0.44213  -0.44086
 Alpha  occ. eigenvalues --   -0.44010  -0.43911  -0.43756  -0.43613  -0.43557
 Alpha  occ. eigenvalues --   -0.43453  -0.43089  -0.43052  -0.42833  -0.42821
 Alpha  occ. eigenvalues --   -0.42614  -0.42455  -0.42428  -0.42016  -0.41905
 Alpha  occ. eigenvalues --   -0.41643  -0.41442  -0.41252  -0.41192  -0.41130
 Alpha  occ. eigenvalues --   -0.41000  -0.40814  -0.40789  -0.40439  -0.40246
 Alpha  occ. eigenvalues --   -0.40219  -0.40187  -0.40084  -0.39931  -0.39887
 Alpha  occ. eigenvalues --   -0.39713  -0.39596  -0.39326  -0.39224  -0.39054
 Alpha  occ. eigenvalues --   -0.38796  -0.38683  -0.38587  -0.38553  -0.38418
 Alpha  occ. eigenvalues --   -0.38296  -0.38192  -0.38079  -0.37775  -0.37677
 Alpha  occ. eigenvalues --   -0.37537  -0.37394  -0.37360  -0.36879  -0.36459
 Alpha  occ. eigenvalues --   -0.36351  -0.36331  -0.36262  -0.36117  -0.36008
 Alpha  occ. eigenvalues --   -0.35953  -0.35871  -0.35648  -0.35406  -0.35185
 Alpha  occ. eigenvalues --   -0.34816  -0.34613  -0.34144  -0.33833  -0.33824
 Alpha  occ. eigenvalues --   -0.33235  -0.33131  -0.32846  -0.32751  -0.32216
 Alpha  occ. eigenvalues --   -0.31925  -0.31634  -0.31601  -0.31485  -0.31355
 Alpha  occ. eigenvalues --   -0.31176  -0.30530  -0.29542  -0.29452  -0.28880
 Alpha  occ. eigenvalues --   -0.28793  -0.28477  -0.27576  -0.27117  -0.26674
 Alpha  occ. eigenvalues --   -0.25873  -0.25646  -0.25508  -0.25440  -0.25281
 Alpha  occ. eigenvalues --   -0.25218  -0.25029  -0.24901  -0.21105  -0.20623
 Alpha  occ. eigenvalues --   -0.19104  -0.18718
 Alpha virt. eigenvalues --   -0.11508  -0.11095  -0.05045  -0.04891  -0.03723
 Alpha virt. eigenvalues --   -0.03525  -0.02042  -0.01917   0.00239   0.00602
 Alpha virt. eigenvalues --    0.00828   0.01230   0.01426   0.01759   0.01915

 Mulliken charges:
               1
     1  Mg  11.999882
     2  C    5.982430
     3  C    6.013774
     4  C    6.017200
     5  C    6.003591
     6  N    6.995041
     7  C    6.025902
     8  C    5.988469
     9  C    6.005534
    10  C    5.974535
    11  C    6.001729
    12  C    5.996229
    13  C    5.998105
    14  H    1.006411
    15  N    7.004152
    16  C    5.960449
    17  C    5.970177
    18  C    5.994211
    19  C    5.967440
    20  C    6.005603
    21  C    5.988475
    22  O    7.975384
    23  C    6.004125
    24  N    7.008471
    25  C    5.962110
    26  C    6.014265
    27  C    5.987305
    28  C    6.032696
    29  C    5.998952
    30  C    5.996134
    31  C    5.998543
    32  N    6.996823
    33  C    6.024294
    34  C    6.028188
    35  C    6.004554
    36  C    6.026282
    37  C    5.998170
    38  C    6.014096
    39  O    8.027480
    40  C    6.004621
    41  C    6.000922
    42  O    8.010481
    43  O    7.998488
    44  C    5.998097
    45  H    0.990322
    46  H    0.992077
    47  H    1.012746
    48  H    1.003653
    49  H    0.999358
    50  H    1.003693
    51  H    1.000871
    52  H    0.988318
    53  H    1.008646
    54  H    1.000423
    55  H    0.994840
    56  H    0.999616
    57  H    0.979756
    58  H    0.980443
    59  H    0.978915
    60  H    0.996572
    61  H    0.986858
    62  H    0.993566
    63  H    1.000174
    64  H    1.000495
    65  H    1.000207
    66  H    1.002803
    67  H    0.990110
    68  H    1.011889
    69  H    0.998527
    70  H    0.999240
    71  H    1.008283
    72  H    0.998399
    73  H    1.017357
    74  H    1.016632
    75  H    1.015609
    76  H    1.008258
    77  H    1.002885
    78  H    1.002710
    79  H    1.005929
    80  Mg  12.000197
    81  C    5.998682
    82  C    6.000853
    83  C    6.001714
    84  C    5.999683
    85  N    6.999418
    86  C    6.002060
    87  C    5.999408
    88  C    6.001191
    89  C    5.997788
    90  C    6.000224
    91  C    5.999926
    92  C    5.999888
    93  H    1.000354
    94  N    7.000384
    95  C    5.997228
    96  C    5.998737
    97  C    5.998760
    98  C    5.997392
    99  C    6.000187
   100  C    5.998906
   101  O    7.997610
   102  C    6.000430
   103  N    7.000102
   104  C    5.997094
   105  C    6.001140
   106  C    5.999244
   107  C    6.002066
   108  C    5.999962
   109  C    5.999619
   110  C    5.999773
   111  N    6.999918
   112  C    6.002542
   113  C    6.002039
   114  C    6.000119
   115  C    6.002532
   116  C    5.999707
   117  C    6.001356
   118  O    8.002378
   119  C    6.000269
   120  C    6.000278
   121  O    8.000572
   122  O    8.000111
   123  C    5.999802
   124  H    0.999196
   125  H    0.999578
   126  H    1.000886
   127  H    0.999815
   128  H    0.999414
   129  H    0.998898
   130  H    1.000261
   131  H    0.999825
   132  H    1.000635
   133  H    0.999508
   134  H    0.999542
   135  H    1.000349
   136  H    0.998752
   137  H    0.998598
   138  H    0.998853
   139  H    0.998852
   140  H    0.999155
   141  H    0.999564
   142  H    0.999766
   143  H    1.000181
   144  H    1.000275
   145  H    0.999181
   146  H    0.999940
   147  H    1.000810
   148  H    0.999865
   149  H    1.000017
   150  H    0.999983
   151  H    1.000801
   152  H    1.001470
   153  H    1.001680
   154  H    1.001060
   155  H    1.000704
   156  H    1.000561
   157  H    1.000263
   158  H    1.000121
 Sum of Mulliken charges = 624.00000

 Dipole moment (field-independent basis, Debye):
    X=             -1.6007    Y=              2.4381    Z=              8.9407  Tot=              9.4044
 Quadrupole moment (field-independent basis, Debye-Ang):
   XX=            108.9535   YY=              1.0570   ZZ=            -10.0572
   XY=            -57.9732   XZ=           -261.1336   YZ=             -7.1017

 Normal termination of Gaussian 16 at Thu Oct 14 04:28:15 2021.
