 Gaussian 16, Revision A.03,
 Gaussian 16:  ES64L-G16RevA.03 25-Dec-2016

 --------------------------------------------------------
 #p PBE1PBE/Def2SVP td=(nstates=5) density=(transition=1)
 --------------------------------------------------------

 --------------------------------
 TDDFT excited states in gaussian
 --------------------------------
 Symbolic Z-matrix:
 Charge =  0 Multiplicity = 1

                         Standard orientation:
 ---------------------------------------------------------------------
 Center     Atomic      Atomic             Coordinates (Angstroms)
 Number     Number       Type             X           Y           Z
 ---------------------------------------------------------------------
      1         12           0       21.357405   -0.806569    0.152112
      2          6           0       22.572054    2.286366   -0.873461
      3          6           0       18.213496    0.543513    0.341809
      4          6           0       20.287887   -3.767503    1.457189
      5          6           0       24.735042   -1.912971    0.124449
      6          7           0       20.501010    1.183437   -0.186739
      7          6           0       21.189685    2.241423   -0.718880
      8          6           0       20.164601    3.355197   -0.946254
      9          6           0       18.885247    2.880657   -0.280418
     10          6           0       19.215280    1.409302   -0.056447
     11          6           0       18.379073    3.577635    0.953881
     12          6           0       19.986275    3.829477   -2.466616
     13          6           0       18.795504    4.803050   -2.742065
     14          1           0       19.053975    6.330717   -2.667965
     15          7           0       19.480662   -1.532094    0.660320
     16          6           0       18.323564   -0.825768    0.702448
     17          6           0       17.312901   -1.719987    1.204443
     18          6           0       17.926152   -2.965288    1.530571
     19          6           0       19.281622   -2.802471    1.250322
     20          6           0       15.891086   -1.265467    1.325408
     21          6           0       17.238751   -4.178572    2.222007
     22          8           0       17.883238   -5.052558    2.773690
     23          6           0       15.798546   -4.308509    2.372993
     24          7           0       22.327399   -2.472423    0.667256
     25          6           0       21.692625   -3.615837    1.151400
     26          6           0       22.672211   -4.778592    1.387252
     27          6           0       23.971492   -4.240876    0.696643
     28          6           0       23.632313   -2.782099    0.438202
     29          6           0       22.728934   -5.328806    2.752152
     30          6           0       24.561640   -5.015702   -0.607770
     31          6           0       25.978166   -5.598042   -0.594175
     32          7           0       23.349540    0.030160   -0.239446
     33          6           0       24.582661   -0.556555   -0.184555
     34          6           0       25.608015    0.363666   -0.545132
     35          6           0       24.842252    1.534627   -0.915156
     36          6           0       23.472946    1.286347   -0.617629
     37          6           0       27.049582    0.028010   -0.602439
     38          6           0       24.952828    2.849303   -1.504233
     39          8           0       25.871250    3.489458   -1.977322
     40          6           0       23.408738    3.401679   -1.482621
     41          6           0       23.320760    4.748260   -0.862314
     42          8           0       23.541041    4.964994    0.309110
     43          8           0       22.955746    5.697733   -1.741579
     44          6           0       22.584103    7.053608   -1.181544
     45          1           0       17.201057    0.953208    0.352871
     46          1           0       19.919996   -4.703334    1.882615
     47          1           0       25.688025   -2.445628    0.154801
     48          1           0       20.636714    4.158984   -0.381502
     49          1           0       18.054224    2.995036   -0.975973
     50          1           0       18.627731    2.817725    1.694059
     51          1           0       17.322354    3.836787    0.886832
     52          1           0       18.986507    4.442331    1.221999
     53          1           0       19.818259    2.878088   -2.971768
     54          1           0       20.904420    4.299647   -2.816851
     55          1           0       17.981232    4.653123   -2.034243
     56          1           0       18.398881    4.571806   -3.730649
     57          1           0       15.630385   -0.277012    0.945851
     58          1           0       15.696245   -1.201840    2.395452
     59          1           0       15.175403   -1.993037    0.942091
     60          1           0       15.211753   -3.472602    2.752439
     61          1           0       15.462166   -5.186631    2.924065
     62          1           0       15.487939   -4.540022    1.354373
     63          1           0       22.196555   -5.499402    0.721647
     64          1           0       24.632839   -4.240486    1.562935
     65          1           0       22.408577   -6.362799    2.882764
     66          1           0       22.099785   -4.700548    3.383222
     67          1           0       23.729304   -5.344123    3.184548
     68          1           0       24.529496   -4.315483   -1.442275
     69          1           0       23.991787   -5.864199   -0.988379
     70          1           0       26.718370   -5.018399   -1.146346
     71          1           0       26.038245   -6.661977   -0.821615
     72          1           0       26.357020   -5.500539    0.423298
     73          1           0       27.310085   -0.528126    0.297779
     74          1           0       27.680301    0.904744   -0.747048
     75          1           0       27.167938   -0.757621   -1.349375
     76          1           0       23.133757    3.524845   -2.529649
     77          1           0       22.696579    7.695775   -2.054792
     78          1           0       23.278630    7.300982   -0.378965
     79          1           0       21.535879    6.992473   -0.888618
     80         12           0      -22.378664    0.367456   -0.311583
     81          6           0      -18.838367    0.524882    0.097321
     82          6           0      -21.807447   -2.002548   -2.562978
     83          6           0      -25.614615   -0.572623   -0.053947
     84          6           0      -22.554246    2.171557    2.756737
     85          7           0      -20.599743   -0.501933   -1.189789
     86          6           0      -19.231832   -0.244381   -0.954200
     87          6           0      -18.282944   -1.100599   -1.850778
     88          6           0      -19.310132   -1.863276   -2.734639
     89          6           0      -20.673593   -1.371510   -2.204447
     90          6           0      -18.978074   -1.549222   -4.202912
     91          6           0      -17.268922   -2.084566   -1.122484
     92          6           0      -15.784482   -1.770178   -1.267804
     93          1           0      -14.876658   -2.878066   -1.839913
     94          7           0      -23.571348   -0.982682   -1.217578
     95          6           0      -23.117301   -1.910825   -2.154411
     96          6           0      -24.197541   -2.623030   -2.707126
     97          6           0      -25.361936   -2.151694   -2.129345
     98          6           0      -24.928628   -1.228311   -1.100280
     99          6           0      -24.178971   -3.736986   -3.818720
    100          6           0      -26.736143   -2.624103   -2.542479
    101          8           0      -26.947686   -3.347042   -3.470253
    102          6           0      -27.962458   -1.974185   -1.731650
    103          7           0      -23.867520    0.676280    1.173024
    104          6           0      -25.141672    0.205859    1.007789
    105          6           0      -25.933890    0.544007    2.336454
    106          6           0      -25.056812    1.497570    3.164868
    107          6           0      -23.718824    1.446547    2.333134
    108          6           0      -27.359612    0.971109    2.131783
    109          6           0      -24.815990    0.896874    4.544223
    110          6           0      -24.451530    1.844317    5.656204
    111          7           0      -21.006491    1.410395    1.026929
    112          6           0      -21.238448    2.103607    2.190916
    113          6           0      -20.027466    2.649711    2.686293
    114          6           0      -18.990158    2.137688    1.871406
    115          6           0      -19.665995    1.288719    0.950063
    116          6           0      -19.835956    3.450186    3.911576
    117          6           0      -17.554074    2.034889    1.578995
    118          8           0      -16.611452    2.626891    2.121690
    119          6           0      -17.376629    1.004830    0.398256
    120          6           0      -16.936808    1.706820   -0.777938
    121          8           0      -17.728276    2.415785   -1.443461
    122          8           0      -15.617120    1.471605   -0.915540
    123          6           0      -14.940066    1.919605   -2.163303
    124          1           0      -21.656809   -2.759329   -3.336115
    125          1           0      -26.671100   -0.849061   -0.043570
    126          1           0      -22.558187    2.831405    3.626441
    127          1           0      -17.684797   -0.444761   -2.483315
    128          1           0      -19.292430   -2.942996   -2.589482
    129          1           0      -19.795223   -1.950001   -4.802002
    130          1           0      -18.046139   -1.969149   -4.581170
    131          1           0      -18.911247   -0.477480   -4.393348
    132          1           0      -17.380644   -3.021520   -1.668177
    133          1           0      -17.554795   -2.210969   -0.078206
    134          1           0      -15.419985   -1.471511   -0.284333
    135          1           0      -15.662671   -0.930973   -1.953547
    136          1           0      -24.715211   -4.584758   -3.391813
    137          1           0      -23.164253   -4.042346   -4.073599
    138          1           0      -24.560627   -3.440690   -4.795746
    139          1           0      -28.863533   -2.330118   -2.230231
    140          1           0      -27.777349   -0.904115   -1.828343
    141          1           0      -27.796297   -2.362608   -0.726897
    142          1           0      -25.986210   -0.420065    2.843577
    143          1           0      -25.425678    2.514389    3.299117
    144          1           0      -27.634538    1.643507    2.943974
    145          1           0      -27.949303    0.054267    2.144543
    146          1           0      -27.567967    1.391369    1.148570
    147          1           0      -24.063922    0.107361    4.541892
    148          1           0      -25.672925    0.323862    4.898310
    149          1           0      -24.591999    2.890683    5.385729
    150          1           0      -23.400875    1.682908    5.898249
    151          1           0      -24.943565    1.556412    6.585192
    152          1           0      -20.728731    4.024125    4.161882
    153          1           0      -19.002045    4.118135    3.694492
    154          1           0      -19.651101    2.724621    4.704047
    155          1           0      -16.774327    0.129665    0.642061
    156          1           0      -13.955562    2.168368   -1.764433
    157          1           0      -15.439220    2.746979   -2.666823
    158          1           0      -14.706720    1.077543   -2.815773
 ---------------------------------------------------------------------

 SCF Done:  E(RPBE1PBE) =  -4067.37984832     A.U. after   16 cycles

 Excitation energies and oscillator strengths:

 Excited State   1:      Singlet-A      1.8570 eV  667.67 nm  f=0.3968  <S**2>=0.000
     310 -> 315        0.17281
     312 -> 314        0.69271
     312 <- 314       -0.11166
 This state for optimization and/or second-order correction.
 Total Energy, E(TD-HF/TD-DFT) =  -4067.31160557
 Copying the excited state density for this state as the 1-particle RhoCI density.

 Excited State   2:      Singlet-A      1.8689 eV  663.41 nm  f=0.3565  <S**2>=0.000
     309 -> 316        0.16686
     311 -> 313        0.69383
     311 <- 313       -0.10950

 Excited State   3:      Singlet-A      1.9583 eV  633.12 nm  f=0.0000  <S**2>=0.000
     312 -> 313        0.70711

 Excited State   4:      Singlet-A      2.0066 eV  617.89 nm  f=0.0000  <S**2>=0.000
     311 -> 314        0.70711

 Excited State   5:      Singlet-A      2.2290 eV  556.24 nm  f=0.0893  <S**2>=0.000
     310 -> 314        0.64387
     312 -> 315       -0.27281

 The electronic state is 1-A.
 Alpha  occ. eigenvalues --  -46.91978 -46.91264 -19.27205 -19.25059 -19.19977
 Alpha  occ. eigenvalues --  -19.19762 -19.19275 -19.19182 -19.18924 -19.18473
 Alpha  occ. eigenvalues --  -14.42217 -14.42006 -14.41811 -14.41544 -14.39131
 Alpha  occ. eigenvalues --  -14.38727 -14.38283 -14.38101 -10.36553 -10.34950
 Alpha  occ. eigenvalues --  -10.32742 -10.32690 -10.32541 -10.31808 -10.30115
 Alpha  occ. eigenvalues --  -10.29517 -10.29357 -10.29326 -10.29282 -10.28928
 Alpha  occ. eigenvalues --  -10.28847 -10.28539 -10.28480 -10.28090 -10.28011
 Alpha  occ. eigenvalues --  -10.27442 -10.27321 -10.27129 -10.27075 -10.26737
 Alpha  occ. eigenvalues --  -10.26719 -10.26566 -10.26216 -10.25990 -10.25968
 Alpha  occ. eigenvalues --  -10.25939 -10.25905 -10.25802 -10.25756 -10.25699
 Alpha  occ. eigenvalues --  -10.25686 -10.25664 -10.25428 -10.25331 -10.25326
 Alpha  occ. eigenvalues --  -10.25128 -10.25109 -10.25076 -10.25070 -10.25012
 Alpha  occ. eigenvalues --  -10.24913 -10.24771 -10.24765 -10.24723 -10.24709
 Alpha  occ. eigenvalues --  -10.24668 -10.24580 -10.24510 -10.24506 -10.24383
 Alpha  occ. eigenvalues --  -10.24353 -10.23884 -10.23693 -10.23621 -10.23591
 Alpha  occ. eigenvalues --  -10.23479 -10.23470 -10.23414 -10.23298 -10.23198
 Alpha  occ. eigenvalues --  -10.23072 -10.23037 -10.23030 -10.22950 -10.22871
 Alpha  occ. eigenvalues --  -10.22683  -3.14149  -3.13502  -1.86965  -1.86503
 Alpha  occ. eigenvalues --   -1.86399  -1.86360  -1.85879  -1.85727  -1.11466
 Alpha  occ. eigenvalues --   -1.10610  -1.06639  -1.05693  -1.04273  -1.03588
 Alpha  occ. eigenvalues --   -1.02242  -1.01548  -0.99855  -0.98799  -0.98716
 Alpha  occ. eigenvalues --   -0.97946  -0.97908  -0.97520  -0.96999  -0.96415
 Alpha  occ. eigenvalues --   -0.86800  -0.86670  -0.84005  -0.83608  -0.83478
 Alpha  occ. eigenvalues --   -0.83023  -0.83012  -0.82646  -0.81881  -0.81681
 Alpha  occ. eigenvalues --   -0.81254  -0.81062  -0.80995  -0.80868  -0.79090
 Alpha  occ. eigenvalues --   -0.78903  -0.78613  -0.77994  -0.77572  -0.76794
 Alpha  occ. eigenvalues --   -0.76708  -0.76197  -0.75713  -0.75538  -0.75096
 Alpha  occ. eigenvalues --   -0.74551  -0.73127  -0.72127  -0.72117  -0.71690
 Alpha  occ. eigenvalues --   -0.71572  -0.70947  -0.70609  -0.70204  -0.69521
 Alpha  occ. eigenvalues --   -0.69476  -0.67300  -0.67236  -0.66270  -0.66208
 Alpha  occ. eigenvalues --   -0.63678  -0.63584  -0.63270  -0.63065  -0.62721
 Alpha  occ. eigenvalues --   -0.62263  -0.61660  -0.61347  -0.60112  -0.60093
 Alpha  occ. eigenvalues --   -0.60036  -0.59912  -0.59555  -0.59192  -0.59111
 Alpha  occ. eigenvalues --   -0.58755  -0.56891  -0.56001  -0.55068  -0.54684
 Alpha  occ. eigenvalues --   -0.54284  -0.54264  -0.53946  -0.53591  -0.53445
 Alpha  occ. eigenvalues --   -0.53068  -0.52864  -0.52572  -0.51863  -0.51692
 Alpha  occ. eigenvalues --   -0.50976  -0.50972  -0.50603  -0.50327  -0.49760
 Alpha  occ. eigenvalues --   -0.49616  -0.49355  -0.49326  -0.49082  -0.48929
 Alpha  occ. eigenvalues --   -0.48474  -0.48401  -0.47794  -0.47788  -0.47481
 Alpha  occ. eigenvalues --   -0.47364  -0.47133  -0.46973  -0.46904  -0.46779
 Alpha  occ. eigenvalues --   -0.46733  -0.46287  -0.46147  -0.45881  -0.45876
 Alpha  occ. eigenvalues --   -0.45609  -0.45433  -0.45216  -0.45081  -0.45069
 Alpha  occ. eigenvalues --   -0.44854  -0.44809  -0.44559  -0.44529  -0.44389
 Alpha  occ. eigenvalues --   -0.44054  -0.43938  -0.43794  -0.43694  -0.43608
 Alpha  occ. eigenvalues --   -0.43599  -0.43220  -0.43102  -0.42980  -0.42858
 Alpha  occ. eigenvalues --   -0.42733  -0.42413  -0.42241  -0.42141  -0.42036
 Alpha  occ. eigenvalues --   -0.41805  -0.41700  -0.41584  -0.41345  -0.41217
 Alpha  occ. eigenvalues --   -0.41159  -0.41042  -0.40977  -0.40817  -0.40788
 Alpha  occ. eigenvalues --   -0.40352  -0.40081  -0.39946  -0.39906  -0.39829
 Alpha  occ. eigenvalues --   -0.39605  -0.39574  -0.39537  -0.39238  -0.39141
 Alpha  occ. eigenvalues --   -0.39049  -0.38919  -0.38869  -0.38524  -0.38425
 Alpha  occ. eigenvalues --   -0.38353  -0.38158  -0.38072  -0.37935  -0.37701
 Alpha  occ. eigenvalues --   -0.37671  -0.37546  -0.37411  -0.37199  -0.36850
 Alpha  occ. eigenvalues --   -0.36772  -0.36644  -0.36627  -0.36563  -0.36328
 Alpha  occ. eigenvalues --   -0.36138  -0.35814  -0.35569  -0.35291  -0.35227
 Alpha  occ. eigenvalues --   -0.35129  -0.35087  -0.34460  -0.34209  -0.34116
 Alpha  occ. eigenvalues --   -0.33755  -0.33425  -0.33204  -0.32729  -0.32657
 Alpha  occ. eigenvalues --   -0.32301  -0.32245  -0.31919  -0.31807  -0.31343
 Alpha  occ. eigenvalues --   -0.31103  -0.30988  -0.29484  -0.29454  -0.29252
 Alpha  occ. eigenvalues --   -0.29148  -0.28621  -0.27882  -0.27425  -0.26613
 Alpha  occ. eigenvalues --   -0.26186  -0.26061  -0.25814  -0.25550  -0.25345
 Alpha  occ. eigenvalues --   -0.25196  -0.24787  -0.24676  -0.21206  -0.21118
 Alpha  occ. eigenvalues --   -0.18909  -0.18771
 Alpha virt. eigenvalues --   -0.11270  -0.11230  -0.05371  -0.05284  -0.03752
 Alpha virt. eigenvalues --   -0.03591  -0.01721  -0.01715  -0.00552  -0.00034
 Alpha virt. eigenvalues --    0.00521   0.00559   0.00809   0.01347   0.01350

 Mulliken charges:
               1
     1  Mg  11.997203
     2  C    5.983307
     3  C    6.014678
     4  C    6.014927
     5  C    5.990444
     6  N    6.994933
     7  C    6.032104
     8  C    5.993466
     9  C    6.006547
    10  C    5.972708
    11  C    6.001048
    12  C    5.995232
    13  C    6.001831
    14  H    0.998787
    15  N    7.003712
    16  C    5.965626
    17  C    5.972045
    18  C    5.991713
    19  C    5.968156
    20  C    6.004537
    21  C    5.988030
    22  O    7.979181
    23  C    6.006969
    24  N    7.003710
    25  C    5.959522
    26  C    6.008619
    27  C    5.986644
    28  C    6.035272
    29  C    6.002327
    30  C    5.997264
    31  C    5.999683
    32  N    6.997646
    33  C    6.030115
    34  C    6.030762
    35  C    6.002695
    36  C    6.029310
    37  C    5.999009
    38  C    6.016253
    39  O    8.029882
    40  C    6.002893
    41  C    6.003415
    42  O    8.004839
    43  O    8.001081
    44  C    5.999157
    45  H    0.991742
    46  H    0.991045
    47  H    1.010910
    48  H    0.999148
    49  H    1.000562
    50  H    1.004429
    51  H    0.999742
    52  H    0.988163
    53  H    1.006055
    54  H    0.994447
    55  H    1.006423
    56  H    1.002123
    57  H    0.980372
    58  H    0.978941
    59  H    0.980675
    60  H    0.995203
    61  H    0.986638
    62  H    0.992709
    63  H    1.000886
    64  H    1.001898
    65  H    0.998371
    66  H    1.003219
    67  H    0.988004
    68  H    0.997054
    69  H    1.011185
    70  H    0.995795
    71  H    1.005346
    72  H    1.001849
    73  H    1.017877
    74  H    1.013148
    75  H    1.020215
    76  H    1.007013
    77  H    1.003392
    78  H    1.001741
    79  H    1.006394
    80  Mg  11.999964
    81  C    5.999485
    82  C    6.000150
    83  C    6.000418
    84  C    5.999656
    85  N    6.999522
    86  C    6.000827
    87  C    5.999641
    88  C    6.000453
    89  C    5.999049
    90  C    6.000084
    91  C    5.999915
    92  C    5.999869
    93  H    1.000375
    94  N    7.000092
    95  C    5.998889
    96  C    5.999352
    97  C    5.999589
    98  C    5.999074
    99  C    6.000050
   100  C    5.999721
   101  O    7.999417
   102  C    5.999900
   103  N    7.000156
   104  C    5.999186
   105  C    6.000073
   106  C    5.999806
   107  C    6.000999
   108  C    6.000019
   109  C    5.999783
   110  C    5.999980
   111  N    7.000072
   112  C    6.001041
   113  C    6.000856
   114  C    6.000131
   115  C    6.000907
   116  C    5.999984
   117  C    6.000622
   118  O    8.001028
   119  C    6.000059
   120  C    6.000096
   121  O    8.000110
   122  O    8.000082
   123  C    5.999915
   124  H    0.999595
   125  H    0.999765
   126  H    1.000262
   127  H    1.000060
   128  H    0.999942
   129  H    1.000130
   130  H    0.999708
   131  H    0.999679
   132  H    1.000282
   133  H    0.999946
   134  H    0.999908
   135  H    0.999955
   136  H    0.999521
   137  H    0.999508
   138  H    0.999404
   139  H    0.999589
   140  H    0.999766
   141  H    0.999755
   142  H    1.000002
   143  H    1.000049
   144  H    0.999707
   145  H    1.000108
   146  H    1.000041
   147  H    1.000094
   148  H    1.000337
   149  H    0.999973
   150  H    0.999873
   151  H    1.000142
   152  H    1.000483
   153  H    1.000459
   154  H    1.000668
   155  H    1.000409
   156  H    1.000167
   157  H    1.000051
   158  H    1.000265
 Sum of Mulliken charges = 624.00000

 Dipole moment (field-independent basis, Debye):
    X=              9.3229    Y=              4.2727    Z=             -2.7406  Tot=             10.6152
 Quadrupole moment (field-independent basis, Debye-Ang):
   XX=            380.8467   YY=             -2.5161   ZZ=             -1.8301
   XY=             76.5021   XZ=            -63.9052   YZ=              3.1975

 Normal termination of Gaussian 16 at Fri Oct 15 05:19:44 2021.
