 Gaussian 16, Revision A.03,
 Gaussian 16:  ES64L-G16RevA.03 25-Dec-2016

 --------------------------------------------------------
 #p PBE1PBE/Def2SVP td=(nstates=5) density=(transition=1)
 --------------------------------------------------------

 --------------------------------
 TDDFT excited states in gaussian
 --------------------------------
 Symbolic Z-matrix:
 Charge =  0 Multiplicity = 1

                         Standard orientation:
 ---------------------------------------------------------------------
 Center     Atomic      Atomic             Coordinates (Angstroms)
 Number     Number       Type             X           Y           Z
 ---------------------------------------------------------------------
      1         12           0       24.779590   -0.846517    0.068805
      2          6           0       24.635066    2.465799   -1.131963
      3          6           0       25.146602    0.407760    3.247406
      4          6           0       25.005297   -3.969632    1.283602
      5          6           0       24.984966   -2.051634   -3.209716
      6          7           0       24.733392    1.189194    0.865693
      7          6           0       24.666104    2.392439    0.303143
      8          6           0       24.682452    3.602861    1.259793
      9          6           0       25.142332    2.803668    2.573572
     10          6           0       25.044431    1.347739    2.188423
     11          6           0       26.527417    3.166363    3.051404
     12          6           0       23.239752    4.334858    1.439688
     13          6           0       23.359596    5.812040    1.825717
     14          1           0       22.738350    6.789359    0.794810
     15          7           0       24.878873   -1.713920    2.041540
     16          6           0       25.077322   -0.972087    3.232293
     17          6           0       24.882260   -1.890838    4.331191
     18          6           0       24.814600   -3.173073    3.793707
     19          6           0       24.877508   -3.016936    2.306610
     20          6           0       24.993272   -1.497530    5.792159
     21          6           0       24.634491   -4.525463    4.444371
     22          8           0       24.522799   -5.502328    3.762765
     23          6           0       24.514020   -4.684616    5.927171
     24          7           0       25.166455   -2.722149   -0.801494
     25          6           0       25.141814   -3.889587   -0.095659
     26          6           0       25.249181   -5.034207   -1.141160
     27          6           0       24.686210   -4.476776   -2.436251
     28          6           0       24.966417   -2.974773   -2.194916
     29          6           0       26.719513   -5.397178   -1.344183
     30          6           0       23.260804   -4.804977   -2.686271
     31          6           0       22.260321   -4.626562   -1.571243
     32          7           0       24.776276   -0.025257   -1.820177
     33          6           0       24.874187   -0.608461   -3.069484
     34          6           0       24.803901    0.446986   -4.091837
     35          6           0       24.685434    1.644109   -3.364555
     36          6           0       24.673035    1.313280   -2.037010
     37          6           0       24.897557    0.261159   -5.544642
     38          6           0       24.429867    3.056793   -3.453477
     39          8           0       24.250188    3.804473   -4.459290
     40          6           0       24.360064    3.621600   -1.956424
     41          6           0       25.469446    4.633625   -1.832320
     42          8           0       26.587466    4.419582   -2.196897
     43          8           0       25.117990    5.853081   -1.192529
     44          6           0       26.271643    6.709779   -0.781462
     45          1           0       25.316035    0.785750    4.257212
     46          1           0       25.179817   -4.989932    1.632472
     47          1           0       24.868832   -2.365456   -4.249435
     48          1           0       25.359844    4.369072    0.880689
     49          1           0       24.401234    3.087061    3.321963
     50          1           0       26.389907    3.895140    3.850038
     51          1           0       27.183965    3.488349    2.242813
     52          1           0       26.865460    2.269782    3.570888
     53          1           0       22.668462    3.838036    2.224454
     54          1           0       22.638559    4.224873    0.536926
     55          1           0       24.437809    5.915086    1.949676
     56          1           0       22.957431    6.010976    2.818906
     57          1           0       24.861112   -0.416244    5.787665
     58          1           0       26.039263   -1.704207    6.016828
     59          1           0       24.228118   -1.968136    6.409885
     60          1           0       23.519703   -4.261104    6.069879
     61          1           0       25.231225   -4.103732    6.506446
     62          1           0       24.564425   -5.739083    6.200735
     63          1           0       24.766155   -5.968955   -0.858613
     64          1           0       25.171839   -4.828969   -3.345714
     65          1           0       27.249384   -5.036465   -2.225845
     66          1           0       26.787730   -6.484975   -1.337980
     67          1           0       27.272294   -5.056468   -0.467971
     68          1           0       23.139114   -5.813155   -3.083046
     69          1           0       22.975756   -4.126635   -3.490232
     70          1           0       21.623111   -3.797056   -1.879153
     71          1           0       22.537018   -4.410931   -0.538807
     72          1           0       21.618873   -5.507447   -1.550343
     73          1           0       25.922355   -0.022601   -5.783927
     74          1           0       24.582138    1.223256   -5.948191
     75          1           0       24.271970   -0.565981   -5.882858
     76          1           0       23.344578    4.005818   -1.858402
     77          1           0       26.674715    7.240283   -1.644075
     78          1           0       27.076823    6.147385   -0.306511
     79          1           0       26.037765    7.534376   -0.108689
     80         12           0      -25.276403   -0.372070   -0.171491
     81          6           0      -23.123124    2.251479   -0.398367
     82          6           0      -27.197389    1.320202    2.126969
     83          6           0      -27.228447   -3.126017    0.085554
     84          6           0      -23.027689   -2.242940   -2.155146
     85          7           0      -25.039639    1.496426    0.927075
     86          6           0      -24.278542    2.500082    0.414772
     87          6           0      -24.640655    3.847518    0.940899
     88          6           0      -25.818728    3.427113    1.963850
     89          6           0      -26.055703    1.981823    1.671412
     90          6           0      -25.422975    3.664600    3.491270
     91          6           0      -25.183016    4.744806   -0.267224
     92          6           0      -25.113461    6.264159   -0.098879
     93          1           0      -24.854626    6.984131    1.248023
     94          7           0      -27.034897   -0.852033    0.854050
     95          6           0      -27.657937   -0.003570    1.783791
     96          6           0      -28.802838   -0.715003    2.303180
     97          6           0      -28.840959   -1.988440    1.699634
     98          6           0      -27.692110   -1.990097    0.804446
     99          6           0      -29.777087   -0.043572    3.299088
    100          6           0      -29.865752   -3.199926    2.013833
    101          8           0      -29.909273   -4.231933    1.332266
    102          6           0      -30.890775   -3.183396    3.135790
    103          7           0      -25.151507   -2.414361   -1.016142
    104          6           0      -26.085483   -3.342664   -0.699077
    105          6           0      -25.656027   -4.740406   -1.141817
    106          6           0      -24.434880   -4.395550   -2.174462
    107          6           0      -24.212550   -2.903804   -1.879706
    108          6           0      -25.353461   -5.786740    0.026196
    109          6           0      -24.778364   -4.481147   -3.747440
    110          6           0      -23.860242   -5.249995   -4.679681
    111          7           0      -23.458757   -0.116881   -1.168428
    112          6           0      -22.669700   -0.922378   -1.900806
    113          6           0      -21.508717   -0.144322   -2.435934
    114          6           0      -21.721952    1.139503   -1.880244
    115          6           0      -22.849154    1.033692   -1.029260
    116          6           0      -20.409449   -0.539130   -3.357505
    117          6           0      -21.136462    2.427491   -1.868703
    118          8           0      -20.115631    2.855034   -2.445837
    119          6           0      -22.016436    3.214039   -0.900456
    120          6           0      -21.203085    3.669765    0.203606
    121          8           0      -20.505929    3.066723    0.958214
    122          8           0      -21.461526    5.030594    0.338520
    123          6           0      -20.839587    5.865539    1.436444
    124          1           0      -27.967685    1.865172    2.675894
    125          1           0      -27.807876   -4.037379    0.249334
    126          1           0      -22.203020   -2.801138   -2.601896
    127          1           0      -23.914110    4.472550    1.459720
    128          1           0      -26.731193    3.991157    1.770646
    129          1           0      -26.229656    3.992849    4.146314
    130          1           0      -24.540759    4.303055    3.535278
    131          1           0      -25.113029    2.693912    3.879678
    132          1           0      -26.217458    4.502761   -0.511815
    133          1           0      -24.574472    4.459516   -1.125728
    134          1           0      -26.048621    6.645446   -0.510949
    135          1           0      -24.359135    6.652855   -0.781932
    136          1           0      -29.548820    0.999944    3.515637
    137          1           0      -29.758280   -0.647671    4.205574
    138          1           0      -30.777428   -0.133177    2.874915
    139          1           0      -31.619082   -2.434922    2.825809
    140          1           0      -30.515366   -2.699723    4.037805
    141          1           0      -31.185660   -4.199405    3.397425
    142          1           0      -26.465279   -5.158543   -1.741649
    143          1           0      -23.572536   -5.035344   -1.986012
    144          1           0      -24.333722   -6.167235   -0.037170
    145          1           0      -26.067846   -6.608260   -0.013320
    146          1           0      -25.406193   -5.300424    1.000560
    147          1           0      -24.952782   -3.495379   -4.178399
    148          1           0      -25.764985   -4.938766   -3.813441
    149          1           0      -23.549516   -4.548513   -5.453155
    150          1           0      -24.329591   -6.137205   -5.103826
    151          1           0      -22.947230   -5.525399   -4.149941
    152          1           0      -20.490348   -1.547409   -3.763286
    153          1           0      -19.443890   -0.492687   -2.853210
    154          1           0      -20.395388    0.161220   -4.192377
    155          1           0      -22.481173    4.078571   -1.375381
    156          1           0      -20.237854    5.238942    2.095127
    157          1           0      -21.626023    6.296050    2.057789
    158          1           0      -20.233687    6.612040    0.922976
 ---------------------------------------------------------------------

 SCF Done:  E(RPBE1PBE) =  -4067.37012968     A.U. after   16 cycles

 Excitation energies and oscillator strengths:

 Excited State   1:      Singlet-A      1.8249 eV  679.40 nm  f=0.3562  <S**2>=0.000
     309 -> 315       -0.17191
     311 -> 313        0.69448
     311 <- 313       -0.10918
 This state for optimization and/or second-order correction.
 Total Energy, E(TD-HF/TD-DFT) =  -4067.30306603
 Copying the excited state density for this state as the 1-particle RhoCI density.

 Excited State   2:      Singlet-A      1.8923 eV  655.19 nm  f=0.3856  <S**2>=0.000
     310 -> 316        0.18633
     312 -> 314        0.68964
     312 <- 314       -0.10199

 Excited State   3:      Singlet-A      1.9296 eV  642.55 nm  f=0.0000  <S**2>=0.000
     312 -> 313        0.70711

 Excited State   4:      Singlet-A      2.0898 eV  593.29 nm  f=0.0000  <S**2>=0.000
     311 -> 314        0.70711

 Excited State   5:      Singlet-A      2.1781 eV  569.24 nm  f=0.1116  <S**2>=0.000
     309 -> 313        0.65714
     311 -> 315        0.25114

 The electronic state is 1-A.
 Alpha  occ. eigenvalues --  -46.92778 -46.92018 -19.25166 -19.24328 -19.20243
 Alpha  occ. eigenvalues --  -19.19724 -19.19500 -19.19030 -19.18946 -19.18717
 Alpha  occ. eigenvalues --  -14.42705 -14.42003 -14.41146 -14.41056 -14.39233
 Alpha  occ. eigenvalues --  -14.39230 -14.38957 -14.38878 -10.36451 -10.35580
 Alpha  occ. eigenvalues --  -10.33499 -10.32103 -10.32050 -10.31520 -10.29402
 Alpha  occ. eigenvalues --  -10.29332 -10.29099 -10.29020 -10.28932 -10.28811
 Alpha  occ. eigenvalues --  -10.28499 -10.28448 -10.28343 -10.28255 -10.27998
 Alpha  occ. eigenvalues --  -10.27936 -10.27722 -10.27609 -10.27497 -10.27484
 Alpha  occ. eigenvalues --  -10.26711 -10.26667 -10.26513 -10.26388 -10.26369
 Alpha  occ. eigenvalues --  -10.26328 -10.26309 -10.26136 -10.26125 -10.26109
 Alpha  occ. eigenvalues --  -10.26050 -10.26002 -10.25949 -10.25835 -10.25815
 Alpha  occ. eigenvalues --  -10.25679 -10.25564 -10.25543 -10.25390 -10.25348
 Alpha  occ. eigenvalues --  -10.25236 -10.25086 -10.25079 -10.24905 -10.24901
 Alpha  occ. eigenvalues --  -10.24889 -10.24863 -10.24569 -10.24511 -10.24014
 Alpha  occ. eigenvalues --  -10.23975 -10.23771 -10.23764 -10.23701 -10.23657
 Alpha  occ. eigenvalues --  -10.23590 -10.23565 -10.23539 -10.23340 -10.23061
 Alpha  occ. eigenvalues --  -10.22802 -10.22780 -10.22565 -10.22398 -10.22375
 Alpha  occ. eigenvalues --  -10.21892  -3.14771  -3.14096  -1.87632  -1.87127
 Alpha  occ. eigenvalues --   -1.87004  -1.86959  -1.86447  -1.86335  -1.10356
 Alpha  occ. eigenvalues --   -1.10317  -1.06621  -1.04325  -1.02965  -1.02229
 Alpha  occ. eigenvalues --   -1.01990  -1.01556  -1.00199  -0.99820  -0.99104
 Alpha  occ. eigenvalues --   -0.98298  -0.97962  -0.97827  -0.97283  -0.96404
 Alpha  occ. eigenvalues --   -0.87814  -0.87405  -0.84250  -0.83708  -0.82981
 Alpha  occ. eigenvalues --   -0.82951  -0.82509  -0.81982  -0.81842  -0.81338
 Alpha  occ. eigenvalues --   -0.81285  -0.81190  -0.80787  -0.80528  -0.78881
 Alpha  occ. eigenvalues --   -0.78650  -0.77890  -0.77741  -0.76814  -0.76626
 Alpha  occ. eigenvalues --   -0.76552  -0.75821  -0.75488  -0.75452  -0.74670
 Alpha  occ. eigenvalues --   -0.74215  -0.72974  -0.72756  -0.71806  -0.71662
 Alpha  occ. eigenvalues --   -0.71492  -0.71383  -0.70568  -0.70478  -0.69555
 Alpha  occ. eigenvalues --   -0.69325  -0.67029  -0.66996  -0.66448  -0.65742
 Alpha  occ. eigenvalues --   -0.64042  -0.63722  -0.63283  -0.63007  -0.62619
 Alpha  occ. eigenvalues --   -0.62293  -0.61389  -0.60439  -0.60191  -0.59716
 Alpha  occ. eigenvalues --   -0.59666  -0.59431  -0.59072  -0.58822  -0.58807
 Alpha  occ. eigenvalues --   -0.57883  -0.56380  -0.56325  -0.55073  -0.54758
 Alpha  occ. eigenvalues --   -0.54457  -0.54446  -0.53796  -0.53746  -0.53605
 Alpha  occ. eigenvalues --   -0.53381  -0.53059  -0.52889  -0.52314  -0.52275
 Alpha  occ. eigenvalues --   -0.50904  -0.50663  -0.50317  -0.50152  -0.49801
 Alpha  occ. eigenvalues --   -0.49231  -0.49056  -0.48656  -0.48640  -0.48486
 Alpha  occ. eigenvalues --   -0.48334  -0.48098  -0.47923  -0.47693  -0.47686
 Alpha  occ. eigenvalues --   -0.47499  -0.47344  -0.47111  -0.46721  -0.46633
 Alpha  occ. eigenvalues --   -0.46509  -0.46237  -0.46152  -0.46030  -0.45985
 Alpha  occ. eigenvalues --   -0.45937  -0.45464  -0.45379  -0.45344  -0.45122
 Alpha  occ. eigenvalues --   -0.44725  -0.44594  -0.44460  -0.44290  -0.44198
 Alpha  occ. eigenvalues --   -0.44052  -0.43951  -0.43831  -0.43719  -0.43709
 Alpha  occ. eigenvalues --   -0.43543  -0.43011  -0.42941  -0.42821  -0.42790
 Alpha  occ. eigenvalues --   -0.42603  -0.42381  -0.42307  -0.42175  -0.41951
 Alpha  occ. eigenvalues --   -0.41915  -0.41617  -0.41431  -0.41290  -0.41167
 Alpha  occ. eigenvalues --   -0.41050  -0.40951  -0.40869  -0.40747  -0.40413
 Alpha  occ. eigenvalues --   -0.40357  -0.40133  -0.39995  -0.39891  -0.39598
 Alpha  occ. eigenvalues --   -0.39435  -0.39152  -0.39112  -0.39028  -0.38856
 Alpha  occ. eigenvalues --   -0.38779  -0.38750  -0.38559  -0.38535  -0.38382
 Alpha  occ. eigenvalues --   -0.38074  -0.38009  -0.37825  -0.37633  -0.37515
 Alpha  occ. eigenvalues --   -0.37310  -0.37273  -0.37139  -0.36675  -0.36650
 Alpha  occ. eigenvalues --   -0.36473  -0.36391  -0.36160  -0.35983  -0.35902
 Alpha  occ. eigenvalues --   -0.35871  -0.35816  -0.35670  -0.35255  -0.35188
 Alpha  occ. eigenvalues --   -0.35088  -0.34695  -0.34686  -0.34437  -0.34341
 Alpha  occ. eigenvalues --   -0.33406  -0.33277  -0.32801  -0.32688  -0.32560
 Alpha  occ. eigenvalues --   -0.32330  -0.32095  -0.31835  -0.31592  -0.31437
 Alpha  occ. eigenvalues --   -0.31205  -0.31035  -0.29800  -0.29522  -0.29423
 Alpha  occ. eigenvalues --   -0.29340  -0.28798  -0.28675  -0.27114  -0.26810
 Alpha  occ. eigenvalues --   -0.26109  -0.25998  -0.25971  -0.25682  -0.25571
 Alpha  occ. eigenvalues --   -0.25479  -0.25284  -0.25244  -0.21016  -0.20793
 Alpha  occ. eigenvalues --   -0.18946  -0.18777
 Alpha virt. eigenvalues --   -0.11423  -0.11001  -0.05236  -0.05190  -0.04201
 Alpha virt. eigenvalues --   -0.03803  -0.02220  -0.02126  -0.00092   0.00051
 Alpha virt. eigenvalues --    0.00749   0.00774   0.00949   0.01349   0.01363

 Mulliken charges:
               1
     1  Mg  11.995495
     2  C    6.017078
     3  C    5.988121
     4  C    5.986289
     5  C    6.009913
     6  N    7.011372
     7  C    5.961623
     8  C    6.013691
     9  C    5.983646
    10  C    6.037289
    11  C    5.996445
    12  C    6.001018
    13  C    6.000192
    14  H    1.003467
    15  N    6.993052
    16  C    6.042315
    17  C    6.012399
    18  C    6.020987
    19  C    6.027018
    20  C    5.999617
    21  C    6.011367
    22  O    8.028285
    23  C    5.997345
    24  N    6.999152
    25  C    6.025975
    26  C    5.996619
    27  C    6.003948
    28  C    5.972582
    29  C    6.001674
    30  C    6.006017
    31  C    5.999602
    32  N    6.998215
    33  C    5.962362
    34  C    5.967206
    35  C    5.999844
    36  C    5.973548
    37  C    6.000504
    38  C    5.986690
    39  O    7.970984
    40  C    5.996861
    41  C    5.994412
    42  O    7.998066
    43  O    7.997098
    44  C    6.002087
    45  H    1.010381
    46  H    1.004260
    47  H    0.992130
    48  H    1.002282
    49  H    1.005447
    50  H    1.007903
    51  H    1.013643
    52  H    0.994273
    53  H    0.989354
    54  H    1.006004
    55  H    0.997157
    56  H    0.994696
    57  H    1.014094
    58  H    1.014234
    59  H    1.013655
    60  H    1.007542
    61  H    1.007080
    62  H    1.013662
    63  H    0.998707
    64  H    0.999584
    65  H    1.011285
    66  H    1.001450
    67  H    0.993611
    68  H    0.992942
    69  H    1.006360
    70  H    1.005943
    71  H    0.984753
    72  H    0.997280
    73  H    0.979090
    74  H    0.987265
    75  H    0.980611
    76  H    0.994134
    77  H    0.998531
    78  H    0.994702
    79  H    0.994482
    80  Mg  11.999998
    81  C    5.999962
    82  C    6.000048
    83  C    6.000064
    84  C    5.999996
    85  N    7.000008
    86  C    6.000027
    87  C    5.999938
    88  C    6.000039
    89  C    5.999904
    90  C    6.000003
    91  C    5.999986
    92  C    6.000000
    93  H    0.999997
    94  N    7.000024
    95  C    5.999861
    96  C    5.999955
    97  C    5.999931
    98  C    5.999915
    99  C    6.000007
   100  C    5.999959
   101  O    7.999962
   102  C    6.000002
   103  N    6.999957
   104  C    5.999950
   105  C    6.000029
   106  C    5.999980
   107  C    6.000077
   108  C    6.000016
   109  C    5.999979
   110  C    6.000012
   111  N    6.999987
   112  C    6.000124
   113  C    6.000019
   114  C    6.000021
   115  C    6.000123
   116  C    6.000005
   117  C    6.000025
   118  O    8.000112
   119  C    6.000035
   120  C    6.000000
   121  O    7.999989
   122  O    8.000017
   123  C    5.999990
   124  H    0.999968
   125  H    0.999967
   126  H    1.000030
   127  H    1.000014
   128  H    1.000000
   129  H    0.999994
   130  H    0.999961
   131  H    0.999983
   132  H    1.000036
   133  H    0.999994
   134  H    1.000021
   135  H    1.000012
   136  H    0.999944
   137  H    0.999943
   138  H    0.999963
   139  H    0.999983
   140  H    0.999966
   141  H    0.999954
   142  H    1.000000
   143  H    1.000001
   144  H    0.999960
   145  H    0.999983
   146  H    0.999991
   147  H    1.000009
   148  H    1.000027
   149  H    1.000013
   150  H    1.000011
   151  H    0.999989
   152  H    1.000059
   153  H    1.000050
   154  H    1.000071
   155  H    1.000038
   156  H    0.999991
   157  H    1.000008
   158  H    1.000032
 Sum of Mulliken charges = 624.00000

 Dipole moment (field-independent basis, Debye):
    X=              0.4987    Y=             -4.1875    Z=              9.2288  Tot=             10.1467
 Quadrupole moment (field-independent basis, Debye-Ang):
   XX=             22.2333   YY=              4.7427   ZZ=              2.7118
   XY=           -104.2502   XZ=            230.3004   YZ=             -8.3220

 Normal termination of Gaussian 16 at Wed Oct 13 21:46:08 2021.
