 Gaussian 16, Revision A.03,
 Gaussian 16:  ES64L-G16RevA.03 25-Dec-2016

 --------------------------------------------------------
 #p PBE1PBE/Def2SVP td=(nstates=5) density=(transition=1)
 --------------------------------------------------------

 --------------------------------
 TDDFT excited states in gaussian
 --------------------------------
 Symbolic Z-matrix:
 Charge =  0 Multiplicity = 1

                         Standard orientation:
 ---------------------------------------------------------------------
 Center     Atomic      Atomic             Coordinates (Angstroms)
 Number     Number       Type             X           Y           Z
 ---------------------------------------------------------------------
      1         12           0      -21.187679   -0.485090   -0.043209
      2          6           0      -19.971858    2.740996   -0.748274
      3          6           0      -20.676837    0.205642    3.326141
      4          6           0      -22.030078   -3.642582    0.546859
      5          6           0      -20.829545   -1.316906   -3.517444
      6          7           0      -20.401417    1.237589    1.132805
      7          6           0      -20.084092    2.497849    0.606950
      8          6           0      -20.106194    3.523241    1.725368
      9          6           0      -20.051159    2.689578    3.037117
     10          6           0      -20.404898    1.283337    2.465981
     11          6           0      -18.733462    2.789045    3.868093
     12          6           0      -21.297684    4.540353    1.657332
     13          6           0      -20.959765    5.980381    2.246275
     14          1           0      -19.569310    6.197930    2.849032
     15          7           0      -21.445517   -1.488183    1.649460
     16          6           0      -21.262452   -1.019251    2.938933
     17          6           0      -21.677105   -2.000131    3.900007
     18          6           0      -21.955688   -3.176982    3.133847
     19          6           0      -21.851672   -2.781057    1.740709
     20          6           0      -21.611559   -1.780965    5.442367
     21          6           0      -22.294566   -4.549396    3.616540
     22          8           0      -22.360031   -5.523543    2.829312
     23          6           0      -22.530007   -5.048946    5.072409
     24          7           0      -21.143113   -2.310693   -1.246207
     25          6           0      -21.644830   -3.468664   -0.776880
     26          6           0      -21.919953   -4.452216   -1.942039
     27          6           0      -21.520462   -3.731703   -3.234724
     28          6           0      -21.175744   -2.305522   -2.616439
     29          6           0      -21.331169   -5.805205   -1.681820
     30          6           0      -22.570726   -3.678661   -4.364976
     31          6           0      -23.909463   -2.994682   -3.993308
     32          7           0      -20.477716    0.451026   -1.829594
     33          6           0      -20.556073    0.040901   -3.117010
     34          6           0      -20.272122    1.210415   -3.947255
     35          6           0      -20.053576    2.335440   -3.103748
     36          6           0      -20.140554    1.811946   -1.790814
     37          6           0      -20.343027    1.258859   -5.471238
     38          6           0      -19.756269    3.731647   -3.063105
     39          8           0      -19.671534    4.610493   -3.916813
     40          6           0      -19.620406    4.063381   -1.437398
     41          6           0      -18.276828    4.716402   -1.172815
     42          8           0      -17.236026    4.096749   -1.072963
     43          8           0      -18.421966    6.069135   -0.964207
     44          6           0      -17.249046    6.930366   -1.074171
     45          1           0      -20.598870    0.573315    4.351237
     46          1           0      -22.398827   -4.638602    0.799557
     47          1           0      -20.874922   -1.609201   -4.568332
     48          1           0      -19.207893    4.137750    1.667712
     49          1           0      -20.879093    3.026118    3.660443
     50          1           0      -18.429160    1.745807    3.945739
     51          1           0      -18.944457    3.119549    4.885835
     52          1           0      -17.889702    3.358566    3.478529
     53          1           0      -22.135497    4.213744    2.272585
     54          1           0      -21.647805    4.595457    0.627366
     55          1           0      -21.607639    6.136727    3.108920
     56          1           0      -21.142026    6.704020    1.452148
     57          1           0      -21.294014   -2.721786    5.893602
     58          1           0      -22.582119   -1.535938    5.872412
     59          1           0      -20.987875   -1.000700    5.878346
     60          1           0      -23.313152   -4.465253    5.557061
     61          1           0      -21.615212   -5.054623    5.664985
     62          1           0      -23.071394   -5.991759    5.140998
     63          1           0      -22.980397   -4.691246   -1.872929
     64          1           0      -20.541327   -4.140772   -3.486324
     65          1           0      -22.073706   -6.534842   -1.358219
     66          1           0      -20.516524   -5.723293   -0.962095
     67          1           0      -20.831278   -6.248395   -2.543814
     68          1           0      -22.773442   -4.731490   -4.562393
     69          1           0      -22.143468   -3.213137   -5.253638
     70          1           0      -24.003438   -2.158391   -4.685753
     71          1           0      -23.815076   -2.661594   -2.959712
     72          1           0      -24.769830   -3.664064   -3.987140
     73          1           0      -20.836139    2.158008   -5.839565
     74          1           0      -20.980055    0.468052   -5.866330
     75          1           0      -19.337419    1.098762   -5.861077
     76          1           0      -20.388545    4.815424   -1.255334
     77          1           0      -16.423098    6.387641   -0.613679
     78          1           0      -17.335547    7.889384   -0.563268
     79          1           0      -17.141060    7.138297   -2.138721
     80         12           0       20.240887   -0.853947   -0.252945
     81          6           0       21.952926    2.239827   -0.302295
     82          6           0       18.057471    0.500828    2.011200
     83          6           0       19.053766   -3.899189    0.280976
     84          6           0       22.829257   -2.205203   -2.183206
     85          7           0       20.131963    1.102791    0.863953
     86          6           0       20.889993    2.239795    0.571798
     87          6           0       20.244004    3.486358    1.225267
     88          6           0       19.000014    2.892518    1.981761
     89          6           0       18.996868    1.389184    1.588742
     90          6           0       18.842101    3.255735    3.447927
     91          6           0       19.877324    4.642965    0.282370
     92          6           0       20.495154    6.008594    0.690327
     93          1           0       19.506863    7.136533    0.887840
     94          7           0       18.689229   -1.559186    0.929938
     95          6           0       17.915635   -0.880618    1.825214
     96          6           0       16.878625   -1.777546    2.276778
     97          6           0       17.250390   -3.134181    1.884376
     98          6           0       18.388858   -2.867099    1.018816
     99          6           0       15.721953   -1.318550    3.307293
    100          6           0       16.859693   -4.447477    2.411474
    101          8           0       17.212669   -5.523983    2.021863
    102          6           0       15.904613   -4.430237    3.601241
    103          7           0       21.008321   -2.820262   -0.717908
    104          6           0       20.277940   -3.914974   -0.429208
    105          6           0       20.818567   -5.138160   -1.173426
    106          6           0       21.769380   -4.513846   -2.207311
    107          6           0       21.868478   -3.083561   -1.725821
    108          6           0       21.572943   -6.137970   -0.182000
    109          6           0       21.058130   -4.567972   -3.653936
    110          6           0       19.878372   -3.579544   -3.862277
    111          7           0       22.000532   -0.180688   -1.217517
    112          6           0       22.912104   -0.835908   -1.954353
    113          6           0       23.914723    0.107562   -2.370461
    114          6           0       23.553014    1.311291   -1.795281
    115          6           0       22.401933    1.098769   -1.031713
    116          6           0       25.144904   -0.118617   -3.228528
    117          6           0       24.031917    2.690721   -1.672306
    118          8           0       24.990076    3.339855   -1.984593
    119          6           0       22.974946    3.373749   -0.764739
    120          6           0       23.729236    3.891946    0.403543
    121          8           0       24.428701    3.171476    1.070346
    122          8           0       23.611723    5.261986    0.574146
    123          6           0       24.571067    5.898254    1.537767
    124          1           0       17.255673    0.997517    2.561764
    125          1           0       18.632111   -4.905827    0.327038
    126          1           0       23.552557   -2.482963   -2.952752
    127          1           0       20.908955    3.852981    2.007546
    128          1           0       18.105536    3.364593    1.574898
    129          1           0       19.770616    3.649925    3.858276
    130          1           0       18.491460    2.431466    4.069513
    131          1           0       18.139893    4.088669    3.472230
    132          1           0       18.823838    4.901064    0.174291
    133          1           0       20.191213    4.422788   -0.737720
    134          1           0       21.317865    6.287434    0.032005
    135          1           0       20.945559    5.882018    1.673991
    136          1           0       14.767301   -1.662877    2.909731
    137          1           0       15.593882   -0.245142    3.441707
    138          1           0       15.799946   -1.621891    4.351298
    139          1           0       15.012350   -3.950965    3.197739
    140          1           0       16.405898   -3.816099    4.348671
    141          1           0       15.603130   -5.415426    3.958414
    142          1           0       20.057185   -5.675830   -1.739499
    143          1           0       22.797640   -4.865762   -2.293508
    144          1           0       21.468646   -7.137903   -0.603961
    145          1           0       21.224179   -6.213687    0.848474
    146          1           0       22.615221   -5.823895   -0.235613
    147          1           0       20.714835   -5.567945   -3.918359
    148          1           0       21.745708   -4.190399   -4.410881
    149          1           0       19.292634   -3.733720   -4.767882
    150          1           0       20.299920   -2.575937   -3.920821
    151          1           0       19.240314   -3.640706   -2.980060
    152          1           0       24.929436   -0.436750   -4.248308
    153          1           0       25.667030   -0.926494   -2.716534
    154          1           0       25.827730    0.730915   -3.217899
    155          1           0       22.628824    4.208983   -1.373315
    156          1           0       23.871155    6.552442    2.057631
    157          1           0       25.336970    6.497205    1.045417
    158          1           0       25.129306    5.284417    2.244202
 ---------------------------------------------------------------------

 SCF Done:  E(RPBE1PBE) =  -4067.39135793     A.U. after   16 cycles

 Excitation energies and oscillator strengths:

 Excited State   1:      Singlet-A      1.8182 eV  681.89 nm  f=0.3824  <S**2>=0.000
     310 -> 315        0.16257
     312 -> 313        0.69668
     312 <- 313       -0.11884
 This state for optimization and/or second-order correction.
 Total Energy, E(TD-HF/TD-DFT) =  -4067.32453917
 Copying the excited state density for this state as the 1-particle RhoCI density.

 Excited State   2:      Singlet-A      1.8679 eV  663.76 nm  f=0.3886  <S**2>=0.000
     309 -> 316       -0.16804
     311 -> 314        0.69464
     311 <- 314       -0.11168

 Excited State   3:      Singlet-A      1.9363 eV  640.32 nm  f=0.0000  <S**2>=0.000
     312 -> 314        0.70711

 Excited State   4:      Singlet-A      1.9609 eV  632.29 nm  f=0.0000  <S**2>=0.000
     311 -> 313        0.70711

 Excited State   5:      Singlet-A      2.1901 eV  566.11 nm  f=0.1398  <S**2>=0.000
     310 -> 313        0.66497
     312 -> 315       -0.22016

 The electronic state is 1-A.
 Alpha  occ. eigenvalues --  -46.92919 -46.92343 -19.25757 -19.24943 -19.19767
 Alpha  occ. eigenvalues --  -19.19705 -19.19480 -19.19448 -19.18621 -19.18542
 Alpha  occ. eigenvalues --  -14.41947 -14.41679 -14.41371 -14.41099 -14.39902
 Alpha  occ. eigenvalues --  -14.39423 -14.39155 -14.38854 -10.36133 -10.35765
 Alpha  occ. eigenvalues --  -10.32831 -10.32569 -10.32261 -10.31483 -10.29219
 Alpha  occ. eigenvalues --  -10.29111 -10.29010 -10.28652 -10.28645 -10.28557
 Alpha  occ. eigenvalues --  -10.28525 -10.28497 -10.28449 -10.28406 -10.28239
 Alpha  occ. eigenvalues --  -10.28031 -10.27954 -10.27749 -10.27695 -10.27409
 Alpha  occ. eigenvalues --  -10.26997 -10.26987 -10.26946 -10.26827 -10.26790
 Alpha  occ. eigenvalues --  -10.26516 -10.25952 -10.25934 -10.25917 -10.25899
 Alpha  occ. eigenvalues --  -10.25834 -10.25830 -10.25811 -10.25726 -10.25582
 Alpha  occ. eigenvalues --  -10.25537 -10.25370 -10.25359 -10.25354 -10.25319
 Alpha  occ. eigenvalues --  -10.25146 -10.25121 -10.24981 -10.24871 -10.24743
 Alpha  occ. eigenvalues --  -10.24709 -10.24699 -10.24430 -10.24424 -10.24203
 Alpha  occ. eigenvalues --  -10.24190 -10.24097 -10.23927 -10.23877 -10.23701
 Alpha  occ. eigenvalues --  -10.23553 -10.23527 -10.23477 -10.23424 -10.23175
 Alpha  occ. eigenvalues --  -10.23169 -10.23089 -10.23022 -10.22693 -10.22401
 Alpha  occ. eigenvalues --  -10.22349  -3.14906  -3.14492  -1.87729  -1.87302
 Alpha  occ. eigenvalues --   -1.87294  -1.87121  -1.86866  -1.86729  -1.10386
 Alpha  occ. eigenvalues --   -1.10233  -1.06387  -1.05830  -1.04296  -1.03056
 Alpha  occ. eigenvalues --   -1.02409  -1.02297  -0.99804  -0.98953  -0.98906
 Alpha  occ. eigenvalues --   -0.98523  -0.98084  -0.97905  -0.96900  -0.96598
 Alpha  occ. eigenvalues --   -0.86680  -0.86609  -0.83540  -0.83171  -0.83061
 Alpha  occ. eigenvalues --   -0.82807  -0.82566  -0.82428  -0.82069  -0.81743
 Alpha  occ. eigenvalues --   -0.81018  -0.80846  -0.80595  -0.79752  -0.78700
 Alpha  occ. eigenvalues --   -0.78081  -0.77746  -0.77687  -0.76748  -0.76475
 Alpha  occ. eigenvalues --   -0.75473  -0.75359  -0.75173  -0.74994  -0.74411
 Alpha  occ. eigenvalues --   -0.74147  -0.72883  -0.72659  -0.71687  -0.71305
 Alpha  occ. eigenvalues --   -0.71080  -0.71032  -0.70437  -0.70172  -0.69575
 Alpha  occ. eigenvalues --   -0.69360  -0.67539  -0.67054  -0.66218  -0.65524
 Alpha  occ. eigenvalues --   -0.64272  -0.63679  -0.63620  -0.63561  -0.62866
 Alpha  occ. eigenvalues --   -0.62498  -0.61932  -0.61618  -0.59896  -0.59825
 Alpha  occ. eigenvalues --   -0.59782  -0.59634  -0.59320  -0.59044  -0.58769
 Alpha  occ. eigenvalues --   -0.58636  -0.56826  -0.56263  -0.55425  -0.55004
 Alpha  occ. eigenvalues --   -0.54258  -0.54085  -0.53841  -0.53399  -0.53343
 Alpha  occ. eigenvalues --   -0.52768  -0.52602  -0.52144  -0.52056  -0.51480
 Alpha  occ. eigenvalues --   -0.50602  -0.50509  -0.50310  -0.49884  -0.49694
 Alpha  occ. eigenvalues --   -0.49388  -0.49350  -0.49208  -0.48652  -0.48511
 Alpha  occ. eigenvalues --   -0.48033  -0.48003  -0.47724  -0.47548  -0.47329
 Alpha  occ. eigenvalues --   -0.47172  -0.47075  -0.46922  -0.46721  -0.46685
 Alpha  occ. eigenvalues --   -0.46530  -0.46526  -0.46112  -0.45932  -0.45707
 Alpha  occ. eigenvalues --   -0.45672  -0.45350  -0.45315  -0.44631  -0.44486
 Alpha  occ. eigenvalues --   -0.44375  -0.44165  -0.44053  -0.44019  -0.43906
 Alpha  occ. eigenvalues --   -0.43893  -0.43867  -0.43732  -0.43639  -0.43458
 Alpha  occ. eigenvalues --   -0.43229  -0.43052  -0.42922  -0.42851  -0.42546
 Alpha  occ. eigenvalues --   -0.42495  -0.42356  -0.42248  -0.42107  -0.42024
 Alpha  occ. eigenvalues --   -0.41650  -0.41433  -0.41094  -0.41087  -0.40983
 Alpha  occ. eigenvalues --   -0.40883  -0.40765  -0.40608  -0.40585  -0.40298
 Alpha  occ. eigenvalues --   -0.40199  -0.40075  -0.39985  -0.39797  -0.39457
 Alpha  occ. eigenvalues --   -0.39303  -0.39300  -0.39012  -0.38901  -0.38882
 Alpha  occ. eigenvalues --   -0.38824  -0.38487  -0.38232  -0.38145  -0.38086
 Alpha  occ. eigenvalues --   -0.38009  -0.37795  -0.37701  -0.37692  -0.37481
 Alpha  occ. eigenvalues --   -0.37325  -0.37305  -0.37127  -0.36966  -0.36854
 Alpha  occ. eigenvalues --   -0.36819  -0.36770  -0.36520  -0.36315  -0.36303
 Alpha  occ. eigenvalues --   -0.36284  -0.35723  -0.35594  -0.35454  -0.35226
 Alpha  occ. eigenvalues --   -0.35031  -0.34662  -0.34617  -0.34148  -0.33980
 Alpha  occ. eigenvalues --   -0.33677  -0.33287  -0.33038  -0.32832  -0.32808
 Alpha  occ. eigenvalues --   -0.32655  -0.32088  -0.31935  -0.31389  -0.31345
 Alpha  occ. eigenvalues --   -0.31182  -0.30899  -0.29584  -0.29226  -0.29104
 Alpha  occ. eigenvalues --   -0.28931  -0.28734  -0.28447  -0.27227  -0.27093
 Alpha  occ. eigenvalues --   -0.26312  -0.26138  -0.25983  -0.25837  -0.25739
 Alpha  occ. eigenvalues --   -0.25285  -0.25101  -0.24980  -0.21117  -0.21084
 Alpha  occ. eigenvalues --   -0.19179  -0.19011
 Alpha virt. eigenvalues --   -0.11655  -0.11575  -0.05046  -0.04987  -0.04299
 Alpha virt. eigenvalues --   -0.03675  -0.02339  -0.01919  -0.01295  -0.01114
 Alpha virt. eigenvalues --    0.00570   0.00825   0.01046   0.01168   0.01808

 Mulliken charges:
               1
     1  Mg  11.999098
     2  C    6.020136
     3  C    6.002087
     4  C    5.981616
     5  C    6.003440
     6  N    7.011856
     7  C    5.967037
     8  C    6.008656
     9  C    5.988988
    10  C    6.022795
    11  C    6.001697
    12  C    6.002664
    13  C    6.000555
    14  H    0.995141
    15  N    6.996419
    16  C    6.031848
    17  C    6.024873
    18  C    6.012019
    19  C    6.027556
    20  C    5.998058
    21  C    6.008178
    22  O    8.031946
    23  C    5.996485
    24  N    6.991498
    25  C    6.030535
    26  C    5.995930
    27  C    6.007239
    28  C    5.979498
    29  C    5.997913
    30  C    6.004123
    31  C    6.004562
    32  N    7.001499
    33  C    5.970198
    34  C    5.961301
    35  C    6.002846
    36  C    5.964868
    37  C    6.001789
    38  C    5.987164
    39  O    7.975979
    40  C    5.995061
    41  C    5.996939
    42  O    7.994422
    43  O    7.998229
    44  C    6.001543
    45  H    1.013446
    46  H    1.003780
    47  H    0.990033
    48  H    1.001244
    49  H    1.002646
    50  H    0.995541
    51  H    1.002608
    52  H    1.012298
    53  H    0.988915
    54  H    1.007278
    55  H    0.995095
    56  H    1.003062
    57  H    1.014241
    58  H    1.019122
    59  H    1.017509
    60  H    1.007796
    61  H    1.008441
    62  H    1.013105
    63  H    0.998855
    64  H    0.996141
    65  H    0.997601
    66  H    0.996201
    67  H    1.008502
    68  H    0.991218
    69  H    1.004202
    70  H    1.004814
    71  H    0.993489
    72  H    0.992479
    73  H    0.982495
    74  H    0.980916
    75  H    0.978878
    76  H    0.991794
    77  H    0.995529
    78  H    0.994512
    79  H    0.999930
    80  Mg  12.000027
    81  C    5.999982
    82  C    5.999955
    83  C    6.000005
    84  C    6.000064
    85  N    6.999968
    86  C    6.000078
    87  C    5.999953
    88  C    6.000052
    89  C    5.999945
    90  C    6.000007
    91  C    5.999985
    92  C    5.999987
    93  H    1.000073
    94  N    7.000018
    95  C    5.999893
    96  C    5.999934
    97  C    5.999973
    98  C    5.999890
    99  C    6.000001
   100  C    5.999950
   101  O    7.999895
   102  C    6.000016
   103  N    7.000025
   104  C    5.999907
   105  C    6.000045
   106  C    5.999964
   107  C    6.000060
   108  C    6.000031
   109  C    5.999971
   110  C    5.999993
   111  N    6.999975
   112  C    6.000113
   113  C    6.000109
   114  C    6.000001
   115  C    6.000116
   116  C    6.000011
   117  C    6.000035
   118  O    8.000083
   119  C    6.000010
   120  C    6.000029
   121  O    7.999986
   122  O    8.000013
   123  C    5.999990
   124  H    0.999992
   125  H    0.999977
   126  H    1.000022
   127  H    0.999988
   128  H    1.000031
   129  H    0.999942
   130  H    0.999996
   131  H    0.999999
   132  H    1.000072
   133  H    1.000001
   134  H    0.999988
   135  H    0.999976
   136  H    0.999951
   137  H    0.999942
   138  H    0.999879
   139  H    0.999986
   140  H    0.999953
   141  H    0.999875
   142  H    1.000004
   143  H    0.999979
   144  H    0.999966
   145  H    0.999996
   146  H    0.999939
   147  H    1.000036
   148  H    1.000000
   149  H    1.000055
   150  H    0.999974
   151  H    1.000062
   152  H    1.000097
   153  H    1.000045
   154  H    1.000051
   155  H    1.000064
   156  H    1.000031
   157  H    1.000019
   158  H    0.999992
 Sum of Mulliken charges = 624.00000

 Dipole moment (field-independent basis, Debye):
    X=             -1.7935    Y=             -5.1120    Z=              9.0308  Tot=             10.5312
 Quadrupole moment (field-independent basis, Debye-Ang):
   XX=             76.9667   YY=              2.5560   ZZ=              0.6586
   XY=            108.1484   XZ=           -190.5039   YZ=             -5.2424

 Normal termination of Gaussian 16 at Thu Oct 14 12:05:45 2021.
