 Gaussian 16, Revision A.03,
 Gaussian 16:  ES64L-G16RevA.03 25-Dec-2016

 --------------------------------------------------------
 #p PBE1PBE/Def2SVP td=(nstates=5) density=(transition=1)
 --------------------------------------------------------

 --------------------------------
 TDDFT excited states in gaussian
 --------------------------------
 Symbolic Z-matrix:
 Charge =  0 Multiplicity = 1

                         Standard orientation:
 ---------------------------------------------------------------------
 Center     Atomic      Atomic             Coordinates (Angstroms)
 Number     Number       Type             X           Y           Z
 ---------------------------------------------------------------------
      1         12           0       14.328932   -0.161603   -0.034794
      2          6           0       11.217169   -1.270163   -1.276729
      3          6           0       14.352627    2.327383   -2.478575
      4          6           0       16.712788    1.444771    1.795829
      5          6           0       13.826082   -2.444506    2.679125
      6          7           0       12.974383    0.401840   -1.665206
      7          6           0       11.781276   -0.156847   -1.959631
      8          6           0       11.053999    0.636413   -3.093646
      9          6           0       12.270652    1.505096   -3.657429
     10          6           0       13.344129    1.400588   -2.526139
     11          6           0       12.976269    1.118298   -4.976976
     12          6           0        9.888984    1.484048   -2.456084
     13          6           0        8.623895    1.596040   -3.351452
     14          1           0        7.922895    3.015175   -3.369051
     15          7           0       15.566232    1.574884   -0.401789
     16          6           0       15.411138    2.392238   -1.489854
     17          6           0       16.428989    3.369854   -1.409568
     18          6           0       17.113082    3.225887   -0.166017
     19          6           0       16.518299    2.005703    0.475324
     20          6           0       16.675306    4.449628   -2.436636
     21          6           0       18.089785    4.179314    0.433371
     22          8           0       18.352428    5.249464   -0.091550
     23          6           0       18.760898    3.987307    1.692564
     24          7           0       15.064397   -0.431994    2.042180
     25          6           0       16.189314    0.296550    2.456203
     26          6           0       16.724106   -0.247782    3.743834
     27          6           0       15.778540   -1.456995    4.089735
     28          6           0       14.832323   -1.471352    2.901588
     29          6           0       18.196926   -0.630727    3.550404
     30          6           0       15.209112   -1.417133    5.557796
     31          6           0       15.488124   -2.606995    6.425191
     32          7           0       12.844950   -1.636196    0.611849
     33          6           0       12.840590   -2.487923    1.689106
     34          6           0       11.722905   -3.451151    1.580905
     35          6           0       11.049011   -2.924985    0.446940
     36          6           0       11.800395   -1.917048   -0.127694
     37          6           0       11.295156   -4.549895    2.541202
     38          6           0        9.818152   -3.030900   -0.290581
     39          8           0        8.836566   -3.765795   -0.100120
     40          6           0        9.838487   -2.020112   -1.436906
     41          6           0        9.631889   -2.682803   -2.738161
     42          8           0        8.737343   -2.409066   -3.453311
     43          8           0       10.669808   -3.485105   -3.115015
     44          6           0       10.521856   -3.904446   -4.525608
     45          1           0       14.432130    3.069595   -3.276182
     46          1           0       17.545678    1.954452    2.282747
     47          1           0       13.488987   -3.168207    3.424921
     48          1           0       10.663899   -0.084037   -3.812797
     49          1           0       12.143593    2.585150   -3.585485
     50          1           0       12.869578    0.049360   -5.165095
     51          1           0       14.030383    1.383453   -5.059064
     52          1           0       12.428734    1.635728   -5.764020
     53          1           0       10.243565    2.474033   -2.167795
     54          1           0        9.639892    0.954621   -1.536380
     55          1           0        7.953334    0.846297   -2.931165
     56          1           0        8.983912    1.240247   -4.317055
     57          1           0       17.673499    4.887513   -2.448077
     58          1           0       15.931841    5.206764   -2.188894
     59          1           0       16.331514    4.246051   -3.450787
     60          1           0       19.356687    3.078857    1.595123
     61          1           0       18.048105    3.941202    2.516413
     62          1           0       19.412827    4.842860    1.869208
     63          1           0       16.553787    0.456353    4.557906
     64          1           0       16.154415   -2.462648    3.900092
     65          1           0       18.635876   -0.211382    2.644776
     66          1           0       18.325446   -1.709623    3.463409
     67          1           0       18.806004   -0.116891    4.293516
     68          1           0       14.135298   -1.281882    5.428386
     69          1           0       15.649385   -0.640333    6.181904
     70          1           0       14.527422   -2.967319    6.792065
     71          1           0       16.073307   -2.339707    7.305284
     72          1           0       16.105977   -3.360094    5.936015
     73          1           0       10.690328   -4.175231    3.367231
     74          1           0       12.129045   -5.149795    2.907853
     75          1           0       10.605471   -5.112618    1.912215
     76          1           0        8.968301   -1.368828   -1.365807
     77          1           0       11.373315   -4.539160   -4.772456
     78          1           0       10.483575   -3.036550   -5.183788
     79          1           0        9.681351   -4.572680   -4.709796
     80         12           0      -13.557616    0.862383   -0.065348
     81          6           0      -14.023143   -2.517524   -0.373694
     82          6           0      -10.278064    0.474838   -0.607304
     83          6           0      -13.228218    4.168043    0.506720
     84          6           0      -17.014509    1.141866    1.026007
     85          7           0      -12.251949   -0.924441   -0.185255
     86          6           0      -12.652517   -2.182240   -0.406718
     87          6           0      -11.388344   -3.136307   -0.718675
     88          6           0      -10.243939   -2.056596   -0.778180
     89          6           0      -10.934808   -0.714586   -0.462739
     90          6           0       -9.022757   -2.399252    0.097178
     91          6           0      -11.533708   -3.963069   -2.027738
     92          6           0      -10.255481   -4.637317   -2.624765
     93          1           0      -10.079491   -6.188889   -2.412765
     94          7           0      -11.944919    2.147120   -0.005172
     95          6           0      -10.712481    1.836146   -0.349209
     96          6           0       -9.897315    3.040195   -0.294827
     97          6           0      -10.690689    4.145410    0.136830
     98          6           0      -12.023573    3.509639    0.226147
     99          6           0       -8.391234    3.095700   -0.490505
    100          6           0      -10.300442    5.581251    0.471712
    101          8           0      -11.057708    6.312323    1.103465
    102          6           0       -8.974318    6.085892    0.021307
    103          7           0      -14.930596    2.423355    0.710951
    104          6           0      -14.553554    3.693358    0.798983
    105          6           0      -15.733611    4.625691    1.119491
    106          6           0      -16.899599    3.642506    1.056825
    107          6           0      -16.227861    2.323831    0.958852
    108          6           0      -15.666927    5.456488    2.409602
    109          6           0      -17.967958    4.016006    0.060603
    110          6           0      -19.387945    4.332095    0.652004
    111          7           0      -15.177088   -0.354171    0.211870
    112          6           0      -16.545322   -0.117348    0.574964
    113          6           0      -17.332174   -1.325853    0.463455
    114          6           0      -16.333077   -2.260356    0.072931
    115          6           0      -15.087731   -1.630896   -0.047357
    116          6           0      -18.799325   -1.561058    0.543778
    117          6           0      -16.249870   -3.613567   -0.415754
    118          8           0      -17.086801   -4.471356   -0.734501
    119          6           0      -14.787388   -3.926129   -0.611484
    120          6           0      -14.341475   -4.891754    0.508612
    121          8           0      -14.633335   -4.840445    1.713275
    122          8           0      -13.540574   -5.837472   -0.059474
    123          6           0      -13.005738   -6.920227    0.825702
    124          1           0       -9.223499    0.501362   -0.889555
    125          1           0      -13.178807    5.185166    0.901031
    126          1           0      -18.070618    1.326466    1.230665
    127          1           0      -11.306800   -3.755619    0.173843
    128          1           0       -9.922135   -1.979386   -1.816704
    129          1           0       -8.136805   -2.167140   -0.492847
    130          1           0       -8.972887   -3.463114    0.329404
    131          1           0       -9.031910   -1.821570    1.021542
    132          1           0      -11.775975   -3.230602   -2.797720
    133          1           0      -12.266069   -4.757864   -1.886600
    134          1           0       -9.402710   -4.230891   -2.080010
    135          1           0      -10.242675   -4.467568   -3.700839
    136          1           0       -7.983075    2.110783   -0.717213
    137          1           0       -7.918260    3.464354    0.419385
    138          1           0       -8.111243    3.773123   -1.296231
    139          1           0       -8.913147    5.819548   -1.034252
    140          1           0       -8.033288    5.760953    0.464086
    141          1           0       -8.876479    7.166063    0.124252
    142          1           0      -15.819292    5.339459    0.300877
    143          1           0      -17.397404    3.673385    2.025857
    144          1           0      -16.088804    6.419556    2.123226
    145          1           0      -14.646890    5.491218    2.791972
    146          1           0      -16.181252    5.009023    3.260042
    147          1           0      -18.104793    3.104463   -0.520306
    148          1           0      -17.705695    4.870928   -0.561969
    149          1           0      -19.378375    4.200418    1.734307
    150          1           0      -20.081717    3.604935    0.228963
    151          1           0      -19.809915    5.295994    0.367143
    152          1           0      -19.330271   -0.610134    0.579089
    153          1           0      -18.961712   -2.008046    1.523882
    154          1           0      -19.035170   -2.147101   -0.345670
    155          1           0      -14.745442   -4.395210   -1.594674
    156          1           0      -12.586631   -6.580311    1.773069
    157          1           0      -12.283472   -7.578984    0.344680
    158          1           0      -13.875055   -7.511401    1.113126
 ---------------------------------------------------------------------

 SCF Done:  E(RPBE1PBE) =  -4067.35486532     A.U. after   16 cycles

 Excitation energies and oscillator strengths:

 Excited State   1:      Singlet-A      1.7168 eV  722.17 nm  f=0.0000  <S**2>=0.000
     312 -> 313        0.70710
 This state for optimization and/or second-order correction.
 Total Energy, E(TD-HF/TD-DFT) =  -4067.29177286
 Copying the excited state density for this state as the 1-particle RhoCI density.

 Excited State   2:      Singlet-A      1.8468 eV  671.35 nm  f=0.4025  <S**2>=0.000
     309 -> 315        0.16873
     311 -> 313        0.69411
     311 <- 313       -0.11315

 Excited State   3:      Singlet-A      1.8792 eV  659.78 nm  f=0.3801  <S**2>=0.000
     310 -> 316        0.16680
     312 -> 314        0.69060
     312 <- 314       -0.10562

 Excited State   4:      Singlet-A      2.1506 eV  576.51 nm  f=0.0000  <S**2>=0.000
     311 -> 314        0.70710

 Excited State   5:      Singlet-A      2.2123 eV  560.44 nm  f=0.1078  <S**2>=0.000
     309 -> 313        0.65186
     311 -> 315       -0.25465

 The electronic state is 1-A.
 Alpha  occ. eigenvalues --  -46.94273 -46.92498 -19.26209 -19.25801 -19.20205
 Alpha  occ. eigenvalues --  -19.19645 -19.19579 -19.19071 -19.17921 -19.17699
 Alpha  occ. eigenvalues --  -14.42497 -14.42378 -14.41360 -14.41297 -14.39666
 Alpha  occ. eigenvalues --  -14.39549 -14.38961 -14.38879 -10.36549 -10.35802
 Alpha  occ. eigenvalues --  -10.33063 -10.31916 -10.30762 -10.30456 -10.30010
 Alpha  occ. eigenvalues --  -10.29749 -10.29729 -10.29324 -10.29320 -10.29117
 Alpha  occ. eigenvalues --  -10.28976 -10.28881 -10.28558 -10.28169 -10.28019
 Alpha  occ. eigenvalues --  -10.27874 -10.27825 -10.27755 -10.27722 -10.27715
 Alpha  occ. eigenvalues --  -10.26957 -10.26929 -10.26925 -10.26762 -10.26701
 Alpha  occ. eigenvalues --  -10.26402 -10.26358 -10.26348 -10.26337 -10.26193
 Alpha  occ. eigenvalues --  -10.26192 -10.26107 -10.26103 -10.26057 -10.25896
 Alpha  occ. eigenvalues --  -10.25742 -10.25642 -10.25510 -10.25477 -10.25392
 Alpha  occ. eigenvalues --  -10.25099 -10.25059 -10.24870 -10.24758 -10.24645
 Alpha  occ. eigenvalues --  -10.24591 -10.24511 -10.24457 -10.24413 -10.24341
 Alpha  occ. eigenvalues --  -10.24259 -10.24099 -10.23994 -10.23977 -10.23875
 Alpha  occ. eigenvalues --  -10.23833 -10.23681 -10.23558 -10.23531 -10.23218
 Alpha  occ. eigenvalues --  -10.23125 -10.23099 -10.23076 -10.22896 -10.22713
 Alpha  occ. eigenvalues --  -10.22119  -3.16012  -3.14603  -1.88864  -1.88366
 Alpha  occ. eigenvalues --   -1.88227  -1.87435  -1.86972  -1.86839  -1.12813
 Alpha  occ. eigenvalues --   -1.10264  -1.04953  -1.04437  -1.03958  -1.03679
 Alpha  occ. eigenvalues --   -1.02671  -1.01294  -1.00255  -0.99813  -0.98956
 Alpha  occ. eigenvalues --   -0.98482  -0.98480  -0.98100  -0.97589  -0.97344
 Alpha  occ. eigenvalues --   -0.87017  -0.85585  -0.84156  -0.83772  -0.83439
 Alpha  occ. eigenvalues --   -0.82902  -0.82637  -0.82436  -0.82398  -0.81692
 Alpha  occ. eigenvalues --   -0.81383  -0.81348  -0.81229  -0.80290  -0.79244
 Alpha  occ. eigenvalues --   -0.79005  -0.78379  -0.77526  -0.77091  -0.76824
 Alpha  occ. eigenvalues --   -0.76414  -0.76299  -0.75313  -0.75302  -0.75002
 Alpha  occ. eigenvalues --   -0.74335  -0.73068  -0.72778  -0.71979  -0.71758
 Alpha  occ. eigenvalues --   -0.71268  -0.70949  -0.70873  -0.70306  -0.69889
 Alpha  occ. eigenvalues --   -0.69615  -0.67677  -0.67061  -0.67021  -0.66058
 Alpha  occ. eigenvalues --   -0.63867  -0.63709  -0.63700  -0.63361  -0.62501
 Alpha  occ. eigenvalues --   -0.62128  -0.61897  -0.61414  -0.60839  -0.60241
 Alpha  occ. eigenvalues --   -0.60218  -0.59670  -0.59380  -0.59299  -0.58831
 Alpha  occ. eigenvalues --   -0.58338  -0.57913  -0.57129  -0.55149  -0.54754
 Alpha  occ. eigenvalues --   -0.54631  -0.54154  -0.53665  -0.53569  -0.53389
 Alpha  occ. eigenvalues --   -0.53181  -0.52942  -0.52530  -0.51795  -0.51742
 Alpha  occ. eigenvalues --   -0.51088  -0.50811  -0.50696  -0.50253  -0.50146
 Alpha  occ. eigenvalues --   -0.49712  -0.49579  -0.49189  -0.49032  -0.48559
 Alpha  occ. eigenvalues --   -0.48287  -0.48227  -0.48071  -0.47918  -0.47843
 Alpha  occ. eigenvalues --   -0.47490  -0.47163  -0.47066  -0.47002  -0.46957
 Alpha  occ. eigenvalues --   -0.46693  -0.46398  -0.46294  -0.46098  -0.45959
 Alpha  occ. eigenvalues --   -0.45673  -0.45643  -0.45587  -0.45243  -0.44933
 Alpha  occ. eigenvalues --   -0.44792  -0.44587  -0.44482  -0.44300  -0.44300
 Alpha  occ. eigenvalues --   -0.44135  -0.43978  -0.43881  -0.43763  -0.43527
 Alpha  occ. eigenvalues --   -0.43478  -0.43326  -0.43163  -0.43095  -0.42873
 Alpha  occ. eigenvalues --   -0.42775  -0.42377  -0.42335  -0.42199  -0.42069
 Alpha  occ. eigenvalues --   -0.41861  -0.41738  -0.41645  -0.41504  -0.41393
 Alpha  occ. eigenvalues --   -0.41173  -0.41103  -0.41084  -0.40821  -0.40587
 Alpha  occ. eigenvalues --   -0.40579  -0.40011  -0.39888  -0.39748  -0.39630
 Alpha  occ. eigenvalues --   -0.39559  -0.39481  -0.39234  -0.39183  -0.39058
 Alpha  occ. eigenvalues --   -0.38917  -0.38767  -0.38727  -0.38582  -0.38544
 Alpha  occ. eigenvalues --   -0.38312  -0.38286  -0.37932  -0.37743  -0.37677
 Alpha  occ. eigenvalues --   -0.37586  -0.37584  -0.37150  -0.36914  -0.36770
 Alpha  occ. eigenvalues --   -0.36723  -0.36712  -0.36657  -0.36298  -0.36233
 Alpha  occ. eigenvalues --   -0.36001  -0.35870  -0.35670  -0.35598  -0.35311
 Alpha  occ. eigenvalues --   -0.35087  -0.34662  -0.34246  -0.34154  -0.33920
 Alpha  occ. eigenvalues --   -0.33718  -0.33152  -0.32986  -0.32791  -0.32639
 Alpha  occ. eigenvalues --   -0.32320  -0.32039  -0.32006  -0.31574  -0.31514
 Alpha  occ. eigenvalues --   -0.31111  -0.30938  -0.29901  -0.29435  -0.29417
 Alpha  occ. eigenvalues --   -0.29135  -0.29054  -0.28594  -0.27221  -0.26696
 Alpha  occ. eigenvalues --   -0.26543  -0.26058  -0.26057  -0.25799  -0.25286
 Alpha  occ. eigenvalues --   -0.25131  -0.24716  -0.24676  -0.21530  -0.20777
 Alpha  occ. eigenvalues --   -0.19327  -0.18650
 Alpha virt. eigenvalues --   -0.11862  -0.10948  -0.05834  -0.05253  -0.03985
 Alpha virt. eigenvalues --   -0.03502  -0.02082  -0.01797  -0.01604  -0.00760
 Alpha virt. eigenvalues --    0.00475   0.00886   0.01032   0.01198   0.01337

 Mulliken charges:
               1
     1  Mg  12.000000
     2  C    6.000000
     3  C    6.000000
     4  C    6.000000
     5  C    6.000000
     6  N    7.000000
     7  C    6.000000
     8  C    6.000000
     9  C    6.000000
    10  C    6.000000
    11  C    6.000000
    12  C    6.000000
    13  C    6.000000
    14  H    1.000000
    15  N    7.000000
    16  C    6.000000
    17  C    6.000000
    18  C    6.000000
    19  C    6.000000
    20  C    6.000000
    21  C    6.000000
    22  O    8.000000
    23  C    6.000000
    24  N    7.000000
    25  C    6.000000
    26  C    6.000000
    27  C    6.000000
    28  C    6.000000
    29  C    6.000000
    30  C    6.000000
    31  C    6.000000
    32  N    7.000000
    33  C    6.000000
    34  C    6.000000
    35  C    6.000000
    36  C    6.000000
    37  C    6.000000
    38  C    6.000000
    39  O    8.000000
    40  C    6.000000
    41  C    6.000000
    42  O    8.000000
    43  O    8.000000
    44  C    6.000000
    45  H    1.000000
    46  H    1.000000
    47  H    1.000000
    48  H    1.000000
    49  H    1.000000
    50  H    1.000000
    51  H    1.000000
    52  H    1.000000
    53  H    1.000000
    54  H    1.000000
    55  H    1.000000
    56  H    1.000000
    57  H    1.000000
    58  H    1.000000
    59  H    1.000000
    60  H    1.000000
    61  H    1.000000
    62  H    1.000000
    63  H    1.000000
    64  H    1.000000
    65  H    1.000000
    66  H    1.000000
    67  H    1.000000
    68  H    1.000000
    69  H    1.000000
    70  H    1.000000
    71  H    1.000000
    72  H    1.000000
    73  H    1.000000
    74  H    1.000000
    75  H    1.000000
    76  H    1.000000
    77  H    1.000000
    78  H    1.000000
    79  H    1.000000
    80  Mg  12.000000
    81  C    6.000000
    82  C    6.000000
    83  C    6.000000
    84  C    6.000000
    85  N    7.000000
    86  C    6.000000
    87  C    6.000000
    88  C    6.000000
    89  C    6.000000
    90  C    6.000000
    91  C    6.000000
    92  C    6.000000
    93  H    1.000000
    94  N    7.000000
    95  C    6.000000
    96  C    6.000000
    97  C    6.000000
    98  C    6.000000
    99  C    6.000000
   100  C    6.000000
   101  O    8.000000
   102  C    6.000000
   103  N    7.000000
   104  C    6.000000
   105  C    6.000000
   106  C    6.000000
   107  C    6.000000
   108  C    6.000000
   109  C    6.000000
   110  C    6.000000
   111  N    7.000000
   112  C    6.000000
   113  C    6.000000
   114  C    6.000000
   115  C    6.000000
   116  C    6.000000
   117  C    6.000000
   118  O    8.000000
   119  C    6.000000
   120  C    6.000000
   121  O    8.000000
   122  O    8.000000
   123  C    6.000000
   124  H    1.000000
   125  H    1.000000
   126  H    1.000000
   127  H    1.000000
   128  H    1.000000
   129  H    1.000000
   130  H    1.000000
   131  H    1.000000
   132  H    1.000000
   133  H    1.000000
   134  H    1.000000
   135  H    1.000000
   136  H    1.000000
   137  H    1.000000
   138  H    1.000000
   139  H    1.000000
   140  H    1.000000
   141  H    1.000000
   142  H    1.000000
   143  H    1.000000
   144  H    1.000000
   145  H    1.000000
   146  H    1.000000
   147  H    1.000000
   148  H    1.000000
   149  H    1.000000
   150  H    1.000000
   151  H    1.000000
   152  H    1.000000
   153  H    1.000000
   154  H    1.000000
   155  H    1.000000
   156  H    1.000000
   157  H    1.000000
   158  H    1.000000
 Sum of Mulliken charges = 624.00000

 Dipole moment (field-independent basis, Debye):
    X=             -0.0000    Y=             -0.0000    Z=              0.0000  Tot=              0.0000
 Quadrupole moment (field-independent basis, Debye-Ang):
   XX=             -0.0000   YY=             -0.0000   ZZ=              0.0000
   XY=             -0.0000   XZ=              0.0000   YZ=             -0.0000

 Normal termination of Gaussian 16 at Thu Oct 14 05:16:32 2021.
