 Gaussian 16, Revision A.03,
 Gaussian 16:  ES64L-G16RevA.03 25-Dec-2016

 --------------------------------------------------------
 #p PBE1PBE/Def2SVP td=(nstates=5) density=(transition=1)
 --------------------------------------------------------

 --------------------------------
 TDDFT excited states in gaussian
 --------------------------------
 Symbolic Z-matrix:
 Charge =  0 Multiplicity = 1

                         Standard orientation:
 ---------------------------------------------------------------------
 Center     Atomic      Atomic             Coordinates (Angstroms)
 Number     Number       Type             X           Y           Z
 ---------------------------------------------------------------------
      1         12           0      -30.064519   -0.451914    0.510745
      2          6           0      -29.428087    2.337511   -1.460030
      3          6           0      -28.938042   -2.347733   -2.166304
      4          6           0      -31.148225   -3.194231    2.205301
      5          6           0      -31.306530    1.618104    2.986291
      6          7           0      -29.325634   -0.042695   -1.595391
      7          6           0      -29.105247    1.189736   -2.191341
      8          6           0      -28.622556    1.095163   -3.691987
      9          6           0      -28.804690   -0.453194   -3.935079
     10          6           0      -29.079361   -1.006252   -2.488176
     11          6           0      -29.883294   -0.982662   -4.884703
     12          6           0      -27.193602    1.647641   -3.845243
     13          6           0      -27.042314    2.977128   -4.536427
     14          1           0      -25.811984    3.150635   -5.444584
     15          7           0      -29.892432   -2.496023    0.209691
     16          6           0      -29.330301   -3.019841   -0.912495
     17          6           0      -29.424930   -4.483997   -0.752228
     18          6           0      -30.134372   -4.764545    0.425980
     19          6           0      -30.418520   -3.515124    1.017630
     20          6           0      -28.729192   -5.395125   -1.680225
     21          6           0      -30.576150   -6.078993    0.999563
     22          8           0      -31.117246   -6.196418    2.134039
     23          6           0      -30.462786   -7.327205    0.312845
     24          7           0      -30.983685   -0.746725    2.322670
     25          6           0      -31.309498   -1.966161    2.831951
     26          6           0      -31.984391   -1.898429    4.145185
     27          6           0      -31.992811   -0.357080    4.448498
     28          6           0      -31.462246    0.187850    3.175954
     29          6           0      -33.380584   -2.530116    4.421135
     30          6           0      -31.236163    0.085454    5.796862
     31          6           0      -29.700533    0.336577    5.866976
     32          7           0      -30.378484    1.542023    0.767510
     33          6           0      -30.853768    2.247778    1.835102
     34          6           0      -30.658979    3.616839    1.632765
     35          6           0      -30.168016    3.676441    0.271817
     36          6           0      -29.993750    2.384981   -0.184202
     37          6           0      -30.900950    4.757432    2.619644
     38          6           0      -29.660423    4.609484   -0.692688
     39          8           0      -29.442955    5.804076   -0.691277
     40          6           0      -29.369732    3.752636   -1.974459
     41          6           0      -30.390759    4.028259   -3.004603
     42          8           0      -31.258985    3.231007   -3.422723
     43          8           0      -30.362904    5.285389   -3.498478
     44          6           0      -31.182088    5.626164   -4.711370
     45          1           0      -28.643130   -2.939547   -3.034616
     46          1           0      -31.550947   -4.030686    2.780616
     47          1           0      -31.517970    2.335288    3.782780
     48          1           0      -29.374109    1.466935   -4.389233
     49          1           0      -27.828724   -0.811369   -4.262500
     50          1           0      -30.667282   -1.486985   -4.319295
     51          1           0      -29.424513   -1.804647   -5.432233
     52          1           0      -30.328004   -0.242827   -5.551164
     53          1           0      -26.678560    0.923833   -4.477942
     54          1           0      -26.713329    1.620779   -2.867125
     55          1           0      -26.987310    3.742206   -3.761557
     56          1           0      -27.892602    3.292801   -5.141124
     57          1           0      -28.006387   -5.923519   -1.059910
     58          1           0      -28.212838   -4.988583   -2.550783
     59          1           0      -29.437714   -6.123134   -2.075236
     60          1           0      -30.798981   -7.124693   -0.703704
     61          1           0      -30.922338   -8.129441    0.888749
     62          1           0      -29.418047   -7.597355    0.158883
     63          1           0      -31.238645   -2.416783    4.747199
     64          1           0      -33.023146   -0.008919    4.511023
     65          1           0      -33.323826   -3.353942    5.132660
     66          1           0      -33.806506   -2.956833    3.512426
     67          1           0      -34.124877   -1.807255    4.755005
     68          1           0      -31.422869   -0.768094    6.448897
     69          1           0      -31.845913    0.939160    6.093037
     70          1           0      -29.184419    0.348075    4.907327
     71          1           0      -29.152662   -0.248297    6.606347
     72          1           0      -29.628610    1.331476    6.304449
     73          1           0      -31.589549    5.502658    2.220061
     74          1           0      -29.951974    5.274714    2.760005
     75          1           0      -31.208098    4.437865    3.615803
     76          1           0      -28.459006    4.146134   -2.426270
     77          1           0      -30.682902    6.566977   -4.943711
     78          1           0      -32.250625    5.738710   -4.530861
     79          1           0      -31.043372    4.860466   -5.475259
     80         12           0       30.615994    0.538735   -0.071694
     81          6           0       28.220538   -1.993264   -0.089992
     82          6           0       28.514789    2.456169    1.875859
     83          6           0       33.047196    2.742545   -0.099497
     84          6           0       33.065844   -1.929577   -1.161746
     85          7           0       28.489807    0.220171    0.749571
     86          6           0       27.712486   -0.899107    0.646549
     87          6           0       26.390346   -0.690134    1.295406
     88          6           0       26.509865    0.735989    1.966698
     89          6           0       27.942899    1.223458    1.518806
     90          6           0       25.317368    1.685365    1.688342
     91          6           0       26.043986   -1.786005    2.332486
     92          6           0       24.661646   -2.375046    2.056761
     93          1           0       23.642707   -2.400981    3.235785
     94          7           0       30.745234    2.374921    0.753021
     95          6           0       29.768597    3.040679    1.492258
     96          6           0       30.317796    4.364212    1.756977
     97          6           0       31.652587    4.493265    1.150512
     98          6           0       31.866151    3.172146    0.479463
     99          6           0       29.683220    5.309715    2.648706
    100          6           0       32.520004    5.657745    1.395094
    101          8           0       32.193558    6.627397    2.047120
    102          6           0       33.939627    5.742568    0.954255
    103          7           0       32.678136    0.389367   -0.506686
    104          6           0       33.396278    1.540662   -0.708800
    105          6           0       34.806691    1.205200   -1.145632
    106          6           0       34.896015   -0.266829   -0.989515
    107          6           0       33.512062   -0.652665   -0.812360
    108          6           0       35.230653    1.789128   -2.555279
    109          6           0       35.653559   -0.705049    0.310676
    110          6           0       36.363331   -1.978311    0.257526
    111          7           0       30.681945   -1.548522   -0.575256
    112          6           0       31.699195   -2.384035   -1.054859
    113          6           0       31.118374   -3.602699   -1.524304
    114          6           0       29.784278   -3.530399   -1.141304
    115          6           0       29.561397   -2.251538   -0.516810
    116          6           0       31.883627   -4.677922   -2.203332
    117          6           0       28.571403   -4.245624   -1.096773
    118          8           0       28.307870   -5.359074   -1.492767
    119          6           0       27.520806   -3.292132   -0.485131
    120          6           0       26.404304   -3.137450   -1.431152
    121          8           0       26.353609   -2.317696   -2.363586
    122          8           0       25.488348   -4.144503   -1.230294
    123          6           0       24.239208   -4.159053   -1.974073
    124          1           0       27.774784    3.029903    2.436729
    125          1           0       33.954103    3.351677   -0.128473
    126          1           0       33.829062   -2.627804   -1.511712
    127          1           0       25.715037   -0.487937    0.463560
    128          1           0       26.517066    0.705348    3.055810
    129          1           0       24.538624    0.990953    1.370668
    130          1           0       25.501603    2.514510    1.005123
    131          1           0       24.991621    2.152035    2.617650
    132          1           0       25.942161   -1.416061    3.352552
    133          1           0       26.836554   -2.530784    2.262398
    134          1           0       24.944497   -3.416530    1.904481
    135          1           0       24.292234   -1.916100    1.140885
    136          1           0       28.743004    4.873782    2.987104
    137          1           0       29.376779    6.256308    2.202550
    138          1           0       30.316935    5.461620    3.523159
    139          1           0       33.818077    5.414904   -0.078216
    140          1           0       34.526295    5.026368    1.530169
    141          1           0       34.311579    6.765781    1.011320
    142          1           0       35.419200    1.735637   -0.417474
    143          1           0       35.216338   -0.852735   -1.851091
    144          1           0       34.488605    2.504015   -2.911299
    145          1           0       35.518516    1.041547   -3.295264
    146          1           0       36.082059    2.466876   -2.499635
    147          1           0       34.953993   -0.711484    1.146628
    148          1           0       36.407629    0.033302    0.582835
    149          1           0       37.363554   -1.802466   -0.139857
    150          1           0       35.822976   -2.729994   -0.318827
    151          1           0       36.622253   -2.295554    1.268198
    152          1           0       32.633594   -4.262873   -2.876535
    153          1           0       31.260045   -5.399694   -2.731110
    154          1           0       32.459106   -5.129320   -1.395091
    155          1           0       27.001006   -3.725949    0.369204
    156          1           0       24.255849   -4.414436   -3.033653
    157          1           0       23.723187   -3.209152   -1.835870
    158          1           0       23.679480   -4.980386   -1.528157
 ---------------------------------------------------------------------

 SCF Done:  E(RPBE1PBE) =  -4067.35566585     A.U. after   15 cycles

 Excitation energies and oscillator strengths:

 Excited State   1:      Singlet-A      1.8373 eV  674.81 nm  f=0.3498  <S**2>=0.000
     309 -> 315       -0.18254
     311 -> 313        0.68984
     311 <- 313       -0.10421
 This state for optimization and/or second-order correction.
 Total Energy, E(TD-HF/TD-DFT) =  -4067.28814525
 Copying the excited state density for this state as the 1-particle RhoCI density.

 Excited State   2:      Singlet-A      1.8654 eV  664.65 nm  f=0.3718  <S**2>=0.000
     310 -> 316        0.17019
     312 -> 314        0.69169
     312 <- 314       -0.10906

 Excited State   3:      Singlet-A      1.8691 eV  663.35 nm  f=0.0000  <S**2>=0.000
     312 -> 313        0.70711

 Excited State   4:      Singlet-A      2.1573 eV  574.72 nm  f=0.0000  <S**2>=0.000
     311 -> 314        0.70711

 Excited State   5:      Singlet-A      2.1967 eV  564.41 nm  f=0.0974  <S**2>=0.000
     309 -> 313        0.64583
     311 -> 315        0.27301

 The electronic state is 1-A.
 Alpha  occ. eigenvalues --  -46.92322 -46.90932 -19.25520 -19.24668 -19.19581
 Alpha  occ. eigenvalues --  -19.18630 -19.18503 -19.18498 -19.18167 -19.17590
 Alpha  occ. eigenvalues --  -14.41833 -14.41464 -14.41452 -14.41400 -14.39922
 Alpha  occ. eigenvalues --  -14.39183 -14.38856 -14.38054 -10.36090 -10.35523
 Alpha  occ. eigenvalues --  -10.31586 -10.31355 -10.31349 -10.30805 -10.29328
 Alpha  occ. eigenvalues --  -10.29323 -10.29216 -10.29183 -10.28888 -10.28735
 Alpha  occ. eigenvalues --  -10.28722 -10.28708 -10.28577 -10.28250 -10.28249
 Alpha  occ. eigenvalues --  -10.28139 -10.27785 -10.27698 -10.27677 -10.26836
 Alpha  occ. eigenvalues --  -10.26498 -10.26402 -10.26378 -10.26281 -10.26200
 Alpha  occ. eigenvalues --  -10.26158 -10.26140 -10.26027 -10.25974 -10.25963
 Alpha  occ. eigenvalues --  -10.25953 -10.25751 -10.25683 -10.25630 -10.25452
 Alpha  occ. eigenvalues --  -10.25450 -10.25307 -10.25245 -10.25138 -10.25104
 Alpha  occ. eigenvalues --  -10.25051 -10.24951 -10.24930 -10.24913 -10.24828
 Alpha  occ. eigenvalues --  -10.24789 -10.24762 -10.24475 -10.24348 -10.24311
 Alpha  occ. eigenvalues --  -10.24290 -10.24263 -10.24103 -10.23945 -10.23766
 Alpha  occ. eigenvalues --  -10.23697 -10.23492 -10.23457 -10.23411 -10.23152
 Alpha  occ. eigenvalues --  -10.22988 -10.22899 -10.22515 -10.22475 -10.22410
 Alpha  occ. eigenvalues --  -10.22255  -3.14394  -3.13224  -1.87238  -1.86777
 Alpha  occ. eigenvalues --   -1.86607  -1.86077  -1.85602  -1.85452  -1.10206
 Alpha  occ. eigenvalues --   -1.09867  -1.04851  -1.04572  -1.04320  -1.02602
 Alpha  occ. eigenvalues --   -1.01498  -0.99870  -0.99595  -0.99524  -0.98758
 Alpha  occ. eigenvalues --   -0.98472  -0.97860  -0.97633  -0.96869  -0.96170
 Alpha  occ. eigenvalues --   -0.87480  -0.87025  -0.85113  -0.83858  -0.83382
 Alpha  occ. eigenvalues --   -0.83266  -0.82727  -0.82607  -0.82056  -0.81831
 Alpha  occ. eigenvalues --   -0.81608  -0.81323  -0.80556  -0.80454  -0.79530
 Alpha  occ. eigenvalues --   -0.78868  -0.78622  -0.77932  -0.77743  -0.76972
 Alpha  occ. eigenvalues --   -0.76803  -0.76705  -0.75738  -0.75296  -0.75160
 Alpha  occ. eigenvalues --   -0.74870  -0.73017  -0.72879  -0.72289  -0.71823
 Alpha  occ. eigenvalues --   -0.71416  -0.71134  -0.70626  -0.70507  -0.69744
 Alpha  occ. eigenvalues --   -0.69644  -0.67873  -0.67552  -0.66493  -0.65773
 Alpha  occ. eigenvalues --   -0.64488  -0.63805  -0.63478  -0.63120  -0.62433
 Alpha  occ. eigenvalues --   -0.62352  -0.61869  -0.61500  -0.60936  -0.60417
 Alpha  occ. eigenvalues --   -0.59814  -0.59670  -0.59495  -0.59279  -0.59208
 Alpha  occ. eigenvalues --   -0.58905  -0.56619  -0.56068  -0.55302  -0.54490
 Alpha  occ. eigenvalues --   -0.54172  -0.54079  -0.54014  -0.53714  -0.53639
 Alpha  occ. eigenvalues --   -0.53260  -0.52543  -0.52244  -0.51856  -0.51833
 Alpha  occ. eigenvalues --   -0.50993  -0.50768  -0.50394  -0.50111  -0.50043
 Alpha  occ. eigenvalues --   -0.49741  -0.49461  -0.49026  -0.48918  -0.48827
 Alpha  occ. eigenvalues --   -0.48394  -0.47908  -0.47826  -0.47467  -0.47257
 Alpha  occ. eigenvalues --   -0.47098  -0.47095  -0.47013  -0.46770  -0.46585
 Alpha  occ. eigenvalues --   -0.46503  -0.46489  -0.46340  -0.46281  -0.45973
 Alpha  occ. eigenvalues --   -0.45820  -0.45657  -0.45402  -0.45017  -0.44955
 Alpha  occ. eigenvalues --   -0.44790  -0.44654  -0.44342  -0.44198  -0.44197
 Alpha  occ. eigenvalues --   -0.44106  -0.43995  -0.43779  -0.43598  -0.43487
 Alpha  occ. eigenvalues --   -0.43438  -0.43227  -0.43107  -0.43037  -0.42805
 Alpha  occ. eigenvalues --   -0.42598  -0.42413  -0.42302  -0.41889  -0.41840
 Alpha  occ. eigenvalues --   -0.41726  -0.41500  -0.41426  -0.41277  -0.41176
 Alpha  occ. eigenvalues --   -0.41029  -0.40985  -0.40886  -0.40773  -0.40503
 Alpha  occ. eigenvalues --   -0.40424  -0.40172  -0.40086  -0.40069  -0.39915
 Alpha  occ. eigenvalues --   -0.39753  -0.39581  -0.39332  -0.39247  -0.39039
 Alpha  occ. eigenvalues --   -0.38879  -0.38780  -0.38571  -0.38538  -0.38523
 Alpha  occ. eigenvalues --   -0.38222  -0.38176  -0.38096  -0.37892  -0.37815
 Alpha  occ. eigenvalues --   -0.37760  -0.37661  -0.37418  -0.37344  -0.36961
 Alpha  occ. eigenvalues --   -0.36613  -0.36443  -0.36366  -0.36247  -0.36149
 Alpha  occ. eigenvalues --   -0.36059  -0.35992  -0.35632  -0.35589  -0.35169
 Alpha  occ. eigenvalues --   -0.35153  -0.34801  -0.34597  -0.34086  -0.33817
 Alpha  occ. eigenvalues --   -0.33526  -0.33219  -0.32830  -0.32681  -0.32317
 Alpha  occ. eigenvalues --   -0.32024  -0.31909  -0.31585  -0.31469  -0.31399
 Alpha  occ. eigenvalues --   -0.31245  -0.30514  -0.29532  -0.29526  -0.28924
 Alpha  occ. eigenvalues --   -0.28777  -0.28228  -0.27560  -0.27032  -0.26658
 Alpha  occ. eigenvalues --   -0.25698  -0.25630  -0.25488  -0.25202  -0.25055
 Alpha  occ. eigenvalues --   -0.25013  -0.24885  -0.24328  -0.21264  -0.20607
 Alpha  occ. eigenvalues --   -0.19224  -0.18702
 Alpha virt. eigenvalues --   -0.11616  -0.11080  -0.05970  -0.04875  -0.03949
 Alpha virt. eigenvalues --   -0.03509  -0.02050  -0.02026  -0.00192  -0.00054
 Alpha virt. eigenvalues --    0.00620   0.00741   0.00844   0.01220   0.01443

 Mulliken charges:
               1
     1  Mg  11.999996
     2  C    6.000202
     3  C    5.999913
     4  C    5.999873
     5  C    6.000015
     6  N    7.000065
     7  C    5.999794
     8  C    6.000068
     9  C    5.999963
    10  C    6.000105
    11  C    5.999994
    12  C    6.000032
    13  C    6.000003
    14  H    0.999974
    15  N    7.000027
    16  C    6.000130
    17  C    6.000165
    18  C    6.000086
    19  C    6.000143
    20  C    5.999950
    21  C    6.000079
    22  O    8.000108
    23  C    5.999975
    24  N    6.999929
    25  C    6.000220
    26  C    5.999919
    27  C    6.000088
    28  C    5.999807
    29  C    5.999995
    30  C    6.000009
    31  C    6.000012
    32  N    6.999969
    33  C    5.999882
    34  C    5.999872
    35  C    6.000020
    36  C    5.999831
    37  C    6.000031
    38  C    5.999888
    39  O    7.999858
    40  C    5.999911
    41  C    6.000008
    42  O    7.999945
    43  O    7.999998
    44  C    6.000019
    45  H    1.000080
    46  H    1.000048
    47  H    0.999923
    48  H    0.999982
    49  H    1.000022
    50  H    0.999983
    51  H    1.000013
    52  H    1.000055
    53  H    0.999970
    54  H    0.999997
    55  H    1.000016
    56  H    1.000000
    57  H    1.000118
    58  H    1.000117
    59  H    1.000123
    60  H    1.000015
    61  H    1.000068
    62  H    1.000044
    63  H    1.000007
    64  H    0.999991
    65  H    1.000009
    66  H    0.999990
    67  H    1.000048
    68  H    0.999947
    69  H    0.999998
    70  H    1.000009
    71  H    0.999963
    72  H    0.999998
    73  H    0.999898
    74  H    0.999900
    75  H    0.999903
    76  H    0.999959
    77  H    0.999974
    78  H    0.999983
    79  H    0.999977
    80  Mg  12.001474
    81  C    6.013432
    82  C    5.986778
    83  C    5.983176
    84  C    6.015148
    85  N    7.004427
    86  C    5.970049
    87  C    6.012427
    88  C    5.992512
    89  C    6.026502
    90  C    5.997361
    91  C    6.000961
    92  C    6.001162
    93  H    0.992632
    94  N    6.991425
    95  C    6.040796
    96  C    6.021980
    97  C    6.010985
    98  C    6.035824
    99  C    5.990591
   100  C    6.006902
   101  O    8.017606
   102  C    5.999554
   103  N    7.005878
   104  C    6.031970
   105  C    5.992815
   106  C    6.006843
   107  C    5.965059
   108  C    5.999250
   109  C    6.006220
   110  C    6.000955
   111  N    7.001800
   112  C    5.961311
   113  C    5.975405
   114  C    5.996602
   115  C    5.970309
   116  C    6.000516
   117  C    5.981730
   118  O    7.969361
   119  C    6.002678
   120  C    5.995327
   121  O    7.991704
   122  O    8.000204
   123  C    6.003209
   124  H    1.009405
   125  H    1.010556
   126  H    0.991269
   127  H    0.996797
   128  H    1.000508
   129  H    1.010980
   130  H    0.997462
   131  H    0.999718
   132  H    0.992962
   133  H    1.006650
   134  H    1.004065
   135  H    0.999549
   136  H    1.018256
   137  H    1.020718
   138  H    1.018866
   139  H    1.005680
   140  H    1.009845
   141  H    1.011405
   142  H    0.999097
   143  H    1.002492
   144  H    0.997573
   145  H    1.011636
   146  H    1.001577
   147  H    0.995117
   148  H    0.986704
   149  H    0.995048
   150  H    1.005646
   151  H    0.996579
   152  H    0.982633
   153  H    0.987459
   154  H    0.982698
   155  H    0.990804
   156  H    0.997202
   157  H    0.993971
   158  H    0.996225
 Sum of Mulliken charges = 624.00000

 Dipole moment (field-independent basis, Debye):
    X=              0.7718    Y=              9.5296    Z=              2.9979  Tot=             10.0198
 Quadrupole moment (field-independent basis, Debye-Ang):
   XX=             42.6643   YY=              7.7118   ZZ=              1.2587
   XY=            295.3551   XZ=             90.3697   YZ=              2.0193

 Normal termination of Gaussian 16 at Thu Oct 14 04:02:44 2021.
