 Gaussian 16, Revision A.03,
 Gaussian 16:  ES64L-G16RevA.03 25-Dec-2016

 --------------------------------------------------------
 #p PBE1PBE/Def2SVP td=(nstates=5) density=(transition=1)
 --------------------------------------------------------

 --------------------------------
 TDDFT excited states in gaussian
 --------------------------------
 Symbolic Z-matrix:
 Charge =  0 Multiplicity = 1

                         Standard orientation:
 ---------------------------------------------------------------------
 Center     Atomic      Atomic             Coordinates (Angstroms)
 Number     Number       Type             X           Y           Z
 ---------------------------------------------------------------------
      1         12           0       -9.723070    0.196037    0.794675
      2          6           0       -8.694692   -2.465939   -1.468348
      3          6           0       -6.948515   -0.537741    2.679613
      4          6           0       -9.755646    3.342117    1.927604
      5          6           0      -12.490427    0.689124   -1.114497
      6          7           0       -7.903837   -1.232437    0.483451
      7          6           0       -7.750746   -2.286533   -0.487823
      8          6           0       -6.568044   -3.174658   -0.091304
      9          6           0       -6.270476   -2.786540    1.387095
     10          6           0       -7.080444   -1.432616    1.598604
     11          6           0       -6.740998   -3.890519    2.448005
     12          6           0       -5.399331   -3.222889   -1.031596
     13          6           0       -5.284875   -2.097792   -2.087127
     14          1           0       -4.145947   -1.899724   -3.104018
     15          7           0       -8.583027    1.230979    2.247459
     16          6           0       -7.465273    0.747570    2.890983
     17          6           0       -7.034483    1.764859    3.900070
     18          6           0       -7.780816    2.895126    3.576567
     19          6           0       -8.732645    2.577755    2.514553
     20          6           0       -5.931805    1.474864    4.855668
     21          6           0       -7.603344    4.288548    4.247053
     22          8           0       -6.695512    4.422506    5.048289
     23          6           0       -8.368041    5.514347    3.871440
     24          7           0      -10.894765    1.804792    0.290636
     25          6           0      -10.771193    2.971267    1.044602
     26          6           0      -11.898318    3.952922    0.723932
     27          6           0      -12.949669    3.040807   -0.006117
     28          6           0      -12.111881    1.784478   -0.254478
     29          6           0      -12.536979    4.752353    1.888712
     30          6           0      -13.597498    3.635457   -1.297541
     31          6           0      -15.119667    4.100040   -1.165304
     32          7           0      -10.534491   -0.729147   -0.900146
     33          6           0      -11.743658   -0.448391   -1.519549
     34          6           0      -12.017625   -1.468797   -2.501322
     35          6           0      -10.815836   -2.189080   -2.533925
     36          6           0       -9.966939   -1.695608   -1.512584
     37          6           0      -13.290018   -1.503065   -3.365535
     38          6           0      -10.131373   -3.296378   -3.127735
     39          8           0      -10.605853   -4.048921   -4.002354
     40          6           0       -8.766246   -3.646888   -2.385625
     41          6           0       -7.768367   -3.721443   -3.471354
     42          8           0       -7.590986   -2.892113   -4.369827
     43          8           0       -7.003188   -4.810997   -3.216700
     44          6           0       -6.035461   -5.206820   -4.287454
     45          1           0       -6.056661   -0.761178    3.267985
     46          1           0       -9.761605    4.362414    2.317393
     47          1           0      -13.447659    0.798911   -1.627693
     48          1           0       -7.100151   -4.125847   -0.107509
     49          1           0       -5.239940   -2.467644    1.544304
     50          1           0       -5.800081   -4.256428    2.857047
     51          1           0       -7.341882   -4.646559    1.942021
     52          1           0       -7.291997   -3.342749    3.213325
     53          1           0       -5.404468   -4.222596   -1.465565
     54          1           0       -4.569933   -3.185020   -0.324567
     55          1           0       -5.352419   -1.174084   -1.511543
     56          1           0       -6.140808   -2.142264   -2.760850
     57          1           0       -5.101248    2.112179    4.553586
     58          1           0       -5.689162    0.415194    4.782084
     59          1           0       -6.280395    1.652224    5.873686
     60          1           0       -8.226598    5.923497    2.871818
     61          1           0       -8.081173    6.385258    4.460049
     62          1           0       -9.380077    5.199992    4.126135
     63          1           0      -11.323823    4.601950    0.061994
     64          1           0      -13.687899    2.809962    0.762206
     65          1           0      -12.164374    5.773867    1.971208
     66          1           0      -12.277843    4.282853    2.837082
     67          1           0      -13.619046    4.703940    1.761901
     68          1           0      -13.544980    2.980457   -2.167655
     69          1           0      -12.945890    4.470698   -1.554516
     70          1           0      -15.106915    5.056415   -1.687469
     71          1           0      -15.476276    4.224030   -0.142667
     72          1           0      -15.728091    3.300385   -1.586259
     73          1           0      -13.609643   -2.495239   -3.684940
     74          1           0      -12.955514   -0.943447   -4.238382
     75          1           0      -14.148121   -1.164216   -2.785482
     76          1           0       -8.883911   -4.585897   -1.842780
     77          1           0       -5.479193   -6.086278   -3.961232
     78          1           0       -5.313067   -4.413232   -4.479356
     79          1           0       -6.699804   -5.407345   -5.126836
     80         12           0        9.667863    0.788465    0.036413
     81          6           0        8.246013   -2.046150    1.500070
     82          6           0        6.417027    1.721546   -0.888709
     83          6           0       10.899667    3.242313   -1.876769
     84          6           0       12.729207   -0.781618    0.115862
     85          7           0        7.492376   -0.016219    0.366806
     86          6           0        7.267310   -1.223961    0.949158
     87          6           0        5.723097   -1.558938    0.951419
     88          6           0        5.179202   -0.431032   -0.063038
     89          6           0        6.414650    0.463292   -0.260701
     90          6           0        4.873807   -1.140907   -1.429717
     91          6           0        5.191800   -1.309618    2.410736
     92          6           0        3.662693   -1.442607    2.647293
     93          1           0        2.748540   -0.548651    3.431206
     94          7           0        8.768215    2.355173   -1.017851
     95          6           0        7.413271    2.624682   -1.273160
     96          6           0        7.347217    3.781230   -2.063701
     97          6           0        8.610697    4.340147   -2.201816
     98          6           0        9.493659    3.309715   -1.680701
     99          6           0        6.021957    4.346502   -2.457591
    100          6           0        9.077992    5.653613   -2.911483
    101          8           0       10.236672    6.053059   -2.954414
    102          6           0        8.082527    6.687639   -3.444564
    103          7           0       11.520281    1.087834   -0.847815
    104          6           0       11.806047    2.254843   -1.467225
    105          6           0       13.309629    2.459455   -1.736941
    106          6           0       13.879902    1.107533   -1.225220
    107          6           0       12.706025    0.463977   -0.509227
    108          6           0       13.652444    2.920803   -3.192364
    109          6           0       15.177143    1.160476   -0.372487
    110          6           0       15.031766    1.622203    1.015338
    111          7           0       10.416567   -0.985824    0.745157
    112          6           0       11.631109   -1.483608    0.718843
    113          6           0       11.722794   -2.746374    1.458877
    114          6           0       10.347844   -2.974742    1.785442
    115          6           0        9.598309   -1.917748    1.307320
    116          6           0       12.885352   -3.363644    2.083787
    117          6           0        9.472516   -3.907318    2.473718
    118          8           0        9.727285   -4.892529    3.128633
    119          6           0        8.066389   -3.345401    2.231483
    120          6           0        7.155412   -4.369551    1.546536
    121          8           0        7.183856   -4.624135    0.370558
    122          8           0        6.373837   -4.987530    2.493258
    123          6           0        5.455710   -5.989521    1.904498
    124          1           0        5.395599    2.066762   -1.056803
    125          1           0       11.360959    4.132960   -2.309127
    126          1           0       13.801707   -0.983215    0.130574
    127          1           0        5.508598   -2.545710    0.540296
    128          1           0        4.298631    0.108919    0.287255
    129          1           0        5.582305   -0.965735   -2.238678
    130          1           0        4.016349   -0.690496   -1.930318
    131          1           0        4.744817   -2.220016   -1.348635
    132          1           0        5.532767   -0.319603    2.712367
    133          1           0        5.739254   -1.987535    3.066141
    134          1           0        3.542990   -2.472408    2.985144
    135          1           0        3.297520   -1.326150    1.627655
    136          1           0        5.150690    3.768163   -2.148989
    137          1           0        6.069547    4.598912   -3.517780
    138          1           0        5.966784    5.280026   -1.896927
    139          1           0        7.499427    6.337861   -4.296545
    140          1           0        8.510298    7.670243   -3.644211
    141          1           0        7.409038    6.914420   -2.617863
    142          1           0       13.463232    3.280351   -1.037043
    143          1           0       14.043629    0.530700   -2.135475
    144          1           0       12.836850    3.503445   -3.619378
    145          1           0       13.808134    2.042456   -3.819307
    146          1           0       14.529311    3.567195   -3.234920
    147          1           0       15.778352    1.866527   -0.944460
    148          1           0       15.697966    0.204927   -0.436853
    149          1           0       14.720088    0.788300    1.644077
    150          1           0       14.352375    2.472096    1.077236
    151          1           0       15.986870    1.925108    1.445465
    152          1           0       13.576744   -2.538435    2.256027
    153          1           0       13.496141   -4.067339    1.518013
    154          1           0       12.527893   -3.842343    2.994859
    155          1           0        7.650835   -3.066889    3.200469
    156          1           0        5.347155   -6.811837    2.611434
    157          1           0        5.833229   -6.538203    1.041377
    158          1           0        4.463187   -5.567074    1.751263
 ---------------------------------------------------------------------

 SCF Done:  E(RPBE1PBE) =  -4067.35583747     A.U. after   16 cycles

 Excitation energies and oscillator strengths:

 Excited State   1:      Singlet-A      1.8044 eV  687.13 nm  f=0.3493  <S**2>=0.000
     309 -> 315       -0.15292
     312 -> 313        0.69766
     312 <- 313       -0.11788
 This state for optimization and/or second-order correction.
 Total Energy, E(TD-HF/TD-DFT) =  -4067.28952820
 Copying the excited state density for this state as the 1-particle RhoCI density.

 Excited State   2:      Singlet-A      1.8253 eV  679.24 nm  f=0.0000  <S**2>=0.000
     311 -> 313        0.70707

 Excited State   3:      Singlet-A      1.8849 eV  657.78 nm  f=0.3723  <S**2>=0.000
     310 -> 316       -0.17975
     311 -> 314        0.69124
     311 <- 314       -0.10346

 Excited State   4:      Singlet-A      1.9118 eV  648.51 nm  f=0.0000  <S**2>=0.000
     312 -> 314        0.70709

 Excited State   5:      Singlet-A      2.2484 eV  551.42 nm  f=0.1131  <S**2>=0.000
     310 -> 314        0.65522
     311 -> 316        0.25345

 The electronic state is 1-A.
 Alpha  occ. eigenvalues --  -46.92808 -46.92096 -19.26476 -19.26195 -19.20642
 Alpha  occ. eigenvalues --  -19.19872 -19.19483 -19.19212 -19.19101 -19.17722
 Alpha  occ. eigenvalues --  -14.42091 -14.41536 -14.41281 -14.40720 -14.39388
 Alpha  occ. eigenvalues --  -14.38817 -14.38745 -14.38622 -10.36810 -10.36355
 Alpha  occ. eigenvalues --  -10.33162 -10.32619 -10.31694 -10.31081 -10.29593
 Alpha  occ. eigenvalues --  -10.29497 -10.29381 -10.29136 -10.29100 -10.28654
 Alpha  occ. eigenvalues --  -10.28525 -10.28469 -10.28407 -10.28301 -10.28202
 Alpha  occ. eigenvalues --  -10.27809 -10.27783 -10.27471 -10.27231 -10.27118
 Alpha  occ. eigenvalues --  -10.26628 -10.26550 -10.26514 -10.26426 -10.26402
 Alpha  occ. eigenvalues --  -10.26344 -10.26324 -10.26213 -10.25957 -10.25738
 Alpha  occ. eigenvalues --  -10.25697 -10.25690 -10.25612 -10.25595 -10.25592
 Alpha  occ. eigenvalues --  -10.25453 -10.25367 -10.25256 -10.25239 -10.25234
 Alpha  occ. eigenvalues --  -10.25073 -10.25062 -10.24999 -10.24961 -10.24934
 Alpha  occ. eigenvalues --  -10.24873 -10.24632 -10.24556 -10.24485 -10.24462
 Alpha  occ. eigenvalues --  -10.24216 -10.24108 -10.23996 -10.23827 -10.23824
 Alpha  occ. eigenvalues --  -10.23750 -10.23706 -10.23647 -10.23475 -10.23471
 Alpha  occ. eigenvalues --  -10.23249 -10.23052 -10.22866 -10.22565 -10.22143
 Alpha  occ. eigenvalues --  -10.22131  -3.14877  -3.14236  -1.87688  -1.87274
 Alpha  occ. eigenvalues --   -1.87081  -1.87063  -1.86625  -1.86446  -1.11614
 Alpha  occ. eigenvalues --   -1.11026  -1.05371  -1.05103  -1.04972  -1.03624
 Alpha  occ. eigenvalues --   -1.02497  -1.01744  -0.99806  -0.99752  -0.98899
 Alpha  occ. eigenvalues --   -0.98328  -0.97955  -0.97396  -0.96990  -0.95001
 Alpha  occ. eigenvalues --   -0.88238  -0.86529  -0.83765  -0.83712  -0.83354
 Alpha  occ. eigenvalues --   -0.83025  -0.82765  -0.82425  -0.81699  -0.81520
 Alpha  occ. eigenvalues --   -0.81219  -0.81029  -0.80635  -0.80610  -0.78727
 Alpha  occ. eigenvalues --   -0.78282  -0.78195  -0.77978  -0.76897  -0.76716
 Alpha  occ. eigenvalues --   -0.76667  -0.75697  -0.75470  -0.75140  -0.74668
 Alpha  occ. eigenvalues --   -0.74660  -0.72703  -0.72408  -0.72194  -0.71912
 Alpha  occ. eigenvalues --   -0.70977  -0.70934  -0.70477  -0.70446  -0.69674
 Alpha  occ. eigenvalues --   -0.69146  -0.67666  -0.66964  -0.66212  -0.66182
 Alpha  occ. eigenvalues --   -0.64369  -0.64135  -0.63607  -0.63472  -0.62778
 Alpha  occ. eigenvalues --   -0.62296  -0.61448  -0.61329  -0.60683  -0.59932
 Alpha  occ. eigenvalues --   -0.59825  -0.59389  -0.59196  -0.58938  -0.58570
 Alpha  occ. eigenvalues --   -0.58266  -0.57107  -0.56887  -0.54508  -0.54230
 Alpha  occ. eigenvalues --   -0.54017  -0.53897  -0.53882  -0.53809  -0.53051
 Alpha  occ. eigenvalues --   -0.52872  -0.52645  -0.52168  -0.51933  -0.51911
 Alpha  occ. eigenvalues --   -0.51486  -0.51041  -0.50857  -0.50181  -0.50122
 Alpha  occ. eigenvalues --   -0.49865  -0.49758  -0.49304  -0.49226  -0.48923
 Alpha  occ. eigenvalues --   -0.48540  -0.48447  -0.47896  -0.47807  -0.47560
 Alpha  occ. eigenvalues --   -0.47540  -0.47277  -0.47267  -0.47095  -0.46803
 Alpha  occ. eigenvalues --   -0.46701  -0.46617  -0.46045  -0.45931  -0.45703
 Alpha  occ. eigenvalues --   -0.45636  -0.45602  -0.45454  -0.45356  -0.44705
 Alpha  occ. eigenvalues --   -0.44684  -0.44518  -0.44456  -0.44145  -0.44114
 Alpha  occ. eigenvalues --   -0.44014  -0.43790  -0.43756  -0.43508  -0.43493
 Alpha  occ. eigenvalues --   -0.43438  -0.43132  -0.42931  -0.42905  -0.42583
 Alpha  occ. eigenvalues --   -0.42522  -0.42394  -0.42156  -0.41994  -0.41758
 Alpha  occ. eigenvalues --   -0.41690  -0.41494  -0.41366  -0.41315  -0.41126
 Alpha  occ. eigenvalues --   -0.40816  -0.40712  -0.40615  -0.40552  -0.40350
 Alpha  occ. eigenvalues --   -0.40091  -0.40075  -0.39851  -0.39818  -0.39730
 Alpha  occ. eigenvalues --   -0.39438  -0.39419  -0.39169  -0.39041  -0.38940
 Alpha  occ. eigenvalues --   -0.38866  -0.38836  -0.38624  -0.38465  -0.38418
 Alpha  occ. eigenvalues --   -0.38355  -0.38160  -0.37941  -0.37790  -0.37707
 Alpha  occ. eigenvalues --   -0.37701  -0.37495  -0.37376  -0.37265  -0.37194
 Alpha  occ. eigenvalues --   -0.37159  -0.37127  -0.36920  -0.36790  -0.36758
 Alpha  occ. eigenvalues --   -0.36612  -0.36074  -0.35876  -0.35570  -0.35121
 Alpha  occ. eigenvalues --   -0.35022  -0.34533  -0.34462  -0.34154  -0.33831
 Alpha  occ. eigenvalues --   -0.33533  -0.33392  -0.32795  -0.32691  -0.32540
 Alpha  occ. eigenvalues --   -0.32286  -0.32273  -0.31786  -0.31754  -0.31518
 Alpha  occ. eigenvalues --   -0.31389  -0.31012  -0.29808  -0.29478  -0.29403
 Alpha  occ. eigenvalues --   -0.29179  -0.28709  -0.28429  -0.27224  -0.26917
 Alpha  occ. eigenvalues --   -0.25964  -0.25856  -0.25729  -0.25531  -0.25504
 Alpha  occ. eigenvalues --   -0.25397  -0.24965  -0.24414  -0.21394  -0.20694
 Alpha  occ. eigenvalues --   -0.18632  -0.18582
 Alpha virt. eigenvalues --   -0.11224  -0.10867  -0.05426  -0.04821  -0.03759
 Alpha virt. eigenvalues --   -0.03254  -0.02135  -0.02081  -0.01514  -0.00543
 Alpha virt. eigenvalues --    0.00031   0.00548   0.00891   0.01346   0.01967

 Mulliken charges:
               1
     1  Mg  12.000263
     2  C    6.027549
     3  C    6.008792
     4  C    5.969007
     5  C    5.992034
     6  N    7.023651
     7  C    5.974318
     8  C    6.003559
     9  C    5.997859
    10  C    6.011835
    11  C    5.997977
    12  C    6.001367
    13  C    6.005886
    14  H    0.998031
    15  N    6.991811
    16  C    6.031741
    17  C    6.027158
    18  C    6.001922
    19  C    6.044990
    20  C    5.995520
    21  C    6.011899
    22  O    8.015861
    23  C    5.998241
    24  N    6.991509
    25  C    6.039239
    26  C    5.989813
    27  C    6.011443
    28  C    5.968104
    29  C    6.000079
    30  C    6.006479
    31  C    5.998014
    32  N    6.999661
    33  C    5.969429
    34  C    5.976217
    35  C    5.998570
    36  C    5.964257
    37  C    5.998747
    38  C    5.983810
    39  O    7.967733
    40  C    5.992961
    41  C    5.996093
    42  O    7.998928
    43  O    7.997739
    44  C    5.999900
    45  H    1.013336
    46  H    1.005130
    47  H    0.984259
    48  H    1.004842
    49  H    0.999259
    50  H    1.005018
    51  H    1.013883
    52  H    0.997212
    53  H    1.002779
    54  H    0.992240
    55  H    0.990108
    56  H    1.006814
    57  H    1.017467
    58  H    1.014256
    59  H    1.017924
    60  H    1.010290
    61  H    1.010932
    62  H    1.007523
    63  H    1.000472
    64  H    0.993315
    65  H    0.997158
    66  H    0.995103
    67  H    1.008760
    68  H    1.005407
    69  H    0.991090
    70  H    0.995157
    71  H    0.994378
    72  H    1.002504
    73  H    0.985100
    74  H    0.984500
    75  H    0.986985
    76  H    0.994251
    77  H    0.995438
    78  H    0.995961
    79  H    1.001153
    80  Mg  11.999967
    81  C    5.999708
    82  C    5.999906
    83  C    6.000508
    84  C    6.000286
    85  N    6.999848
    86  C    6.000092
    87  C    5.999997
    88  C    5.999940
    89  C    5.999722
    90  C    5.999913
    91  C    6.000018
    92  C    6.000892
    93  H    0.996732
    94  N    7.000016
    95  C    5.999675
    96  C    5.999925
    97  C    5.999912
    98  C    5.999758
    99  C    6.000141
   100  C    6.000021
   101  O    8.000011
   102  C    6.000037
   103  N    7.000212
   104  C    5.999761
   105  C    5.999977
   106  C    5.999884
   107  C    6.000235
   108  C    5.999941
   109  C    5.999887
   110  C    5.999886
   111  N    6.999974
   112  C    6.000203
   113  C    6.000617
   114  C    5.999963
   115  C    6.000263
   116  C    5.999929
   117  C    6.000200
   118  O    8.000343
   119  C    5.999889
   120  C    5.999995
   121  O    8.000417
   122  O    7.999747
   123  C    5.999878
   124  H    0.999165
   125  H    1.000215
   126  H    1.000448
   127  H    1.000224
   128  H    0.998862
   129  H    1.000594
   130  H    0.999972
   131  H    1.000179
   132  H    0.999919
   133  H    1.000141
   134  H    1.000157
   135  H    1.000202
   136  H    0.999453
   137  H    1.000279
   138  H    0.999428
   139  H    1.000209
   140  H    1.000095
   141  H    0.999611
   142  H    1.000059
   143  H    1.000358
   144  H    1.000159
   145  H    1.000243
   146  H    1.000216
   147  H    1.000321
   148  H    1.000203
   149  H    0.999865
   150  H    0.999954
   151  H    1.000266
   152  H    1.000255
   153  H    1.000604
   154  H    1.000174
   155  H    0.999664
   156  H    1.000104
   157  H    1.000571
   158  H    0.999606
 Sum of Mulliken charges = 624.00000

 Dipole moment (field-independent basis, Debye):
    X=              5.7308    Y=              3.6633    Z=              7.4732  Tot=             10.1050
 Quadrupole moment (field-independent basis, Debye-Ang):
   XX=           -104.5747   YY=              2.8937   ZZ=              8.3998
   XY=            -33.0733   XZ=            -66.1067   YZ=              1.9865

 Normal termination of Gaussian 16 at Wed Oct 13 22:32:35 2021.
