 Gaussian 16, Revision A.03,
 Gaussian 16:  ES64L-G16RevA.03 25-Dec-2016

 --------------------------------------------------------
 #p PBE1PBE/Def2SVP td=(nstates=5) density=(transition=1)
 --------------------------------------------------------

 --------------------------------
 TDDFT excited states in gaussian
 --------------------------------
 Symbolic Z-matrix:
 Charge =  0 Multiplicity = 1

                         Standard orientation:
 ---------------------------------------------------------------------
 Center     Atomic      Atomic             Coordinates (Angstroms)
 Number     Number       Type             X           Y           Z
 ---------------------------------------------------------------------
      1         12           0       25.807049   -0.413590    0.268925
      2          6           0       24.343226    2.689333    0.923205
      3          6           0       25.940559    0.559959   -3.096904
      4          6           0       26.694178   -3.518259   -0.610287
      5          6           0       24.656700   -1.529442    3.314392
      6          7           0       25.299722    1.499336   -0.985171
      7          6           0       24.660721    2.561095   -0.425909
      8          6           0       24.354917    3.661719   -1.517661
      9          6           0       24.657096    2.828393   -2.863534
     10          6           0       25.292827    1.537496   -2.320718
     11          6           0       23.272144    2.453176   -3.500810
     12          6           0       25.402379    4.818791   -1.322593
     13          6           0       25.398029    5.970232   -2.364696
     14          1           0       26.560259    6.633361   -3.042070
     15          7           0       26.432136   -1.253115   -1.542118
     16          6           0       26.467906   -0.708994   -2.836855
     17          6           0       26.936204   -1.703625   -3.707675
     18          6           0       27.336501   -2.821301   -2.987671
     19          6           0       26.830893   -2.559289   -1.650254
     20          6           0       27.130230   -1.401305   -5.157485
     21          6           0       27.991774   -4.161920   -3.457293
     22          8           0       28.316689   -5.081503   -2.713831
     23          6           0       28.490600   -4.364275   -4.890668
     24          7           0       25.572513   -2.257716    1.189320
     25          6           0       26.158218   -3.362243    0.675308
     26          6           0       26.200356   -4.551910    1.654230
     27          6           0       25.421986   -3.958527    2.861210
     28          6           0       25.295315   -2.483677    2.524210
     29          6           0       25.725210   -5.912664    1.044965
     30          6           0       25.996940   -4.226814    4.279039
     31          6           0       27.183130   -3.448965    4.664123
     32          7           0       24.807361    0.389046    1.871229
     33          6           0       24.418098   -0.147728    3.004340
     34          6           0       23.834833    0.846608    3.910833
     35          6           0       23.809962    2.004886    3.069964
     36          6           0       24.365473    1.676790    1.848735
     37          6           0       23.730840    0.817106    5.363896
     38          6           0       23.440388    3.409521    3.063874
     39          8           0       23.035250    4.123036    3.953379
     40          6           0       23.719009    3.861079    1.625094
     41          6           0       22.466782    4.440746    0.958888
     42          8           0       21.569899    3.777872    0.506401
     43          8           0       22.505746    5.812569    1.033884
     44          6           0       21.327844    6.448809    0.400380
     45          1           0       26.096682    0.921583   -4.114548
     46          1           0       27.170653   -4.484322   -0.791027
     47          1           0       24.527647   -2.086663    4.243889
     48          1           0       23.310378    3.974263   -1.515309
     49          1           0       25.278885    3.350737   -3.591676
     50          1           0       22.954556    1.415841   -3.400068
     51          1           0       23.321564    2.451463   -4.589965
     52          1           0       22.444514    3.073471   -3.157366
     53          1           0       26.388109    4.356355   -1.279481
     54          1           0       25.252818    5.213881   -0.317422
     55          1           0       24.761519    6.728598   -1.907861
     56          1           0       24.883773    5.481960   -3.191561
     57          1           0       26.823755   -0.405191   -5.477872
     58          1           0       26.711734   -2.230631   -5.729374
     59          1           0       28.213344   -1.427541   -5.280089
     60          1           0       27.692959   -4.399235   -5.632805
     61          1           0       29.177509   -5.200881   -5.019521
     62          1           0       29.144362   -3.518979   -5.106361
     63          1           0       27.279247   -4.565167    1.806349
     64          1           0       24.424112   -4.386575    2.765671
     65          1           0       25.925792   -5.952345   -0.025174
     66          1           0       24.650076   -6.015963    1.193988
     67          1           0       26.243327   -6.770933    1.473286
     68          1           0       26.245365   -5.285440    4.210417
     69          1           0       25.198931   -4.155258    5.018319
     70          1           0       26.871567   -2.473359    5.036913
     71          1           0       27.890549   -3.376978    3.838230
     72          1           0       27.703488   -3.893909    5.512790
     73          1           0       24.515488    0.130601    5.682798
     74          1           0       22.843582    0.395053    5.836119
     75          1           0       23.871405    1.842573    5.703956
     76          1           0       24.504357    4.616730    1.662580
     77          1           0       21.076428    7.345124    0.967086
     78          1           0       20.385485    5.907330    0.485872
     79          1           0       21.555818    6.767334   -0.616289
     80         12           0      -24.837663   -0.880626   -0.221607
     81          6           0      -26.353076    2.266245    0.118680
     82          6           0      -23.673548   -0.071364   -3.240123
     83          6           0      -23.581136   -3.858488   -0.386229
     84          6           0      -26.981352   -1.920941    2.500712
     85          7           0      -25.115094    0.883060   -1.427727
     86          6           0      -25.592904    2.083868   -1.077629
     87          6           0      -25.527173    3.070353   -2.214890
     88          6           0      -25.037169    2.168594   -3.418007
     89          6           0      -24.565545    0.933949   -2.674491
     90          6           0      -26.049550    1.838811   -4.562507
     91          6           0      -24.432630    4.215406   -1.907881
     92          6           0      -24.957375    5.664652   -2.172608
     93          1           0      -23.951727    6.784334   -1.563204
     94          7           0      -23.602230   -1.718427   -1.466991
     95          6           0      -23.170715   -1.220412   -2.684586
     96          6           0      -22.098639   -2.049981   -3.161584
     97          6           0      -21.977216   -3.229026   -2.317941
     98          6           0      -23.001428   -2.944236   -1.241263
     99          6           0      -21.408105   -1.685732   -4.507253
    100          6           0      -21.107943   -4.481295   -2.307934
    101          8           0      -21.090041   -5.360786   -1.427912
    102          6           0      -20.145764   -4.517125   -3.442063
    103          7           0      -25.391396   -2.618989    0.828943
    104          6           0      -24.654234   -3.731933    0.507710
    105          6           0      -25.157189   -4.959451    1.268241
    106          6           0      -25.997558   -4.297943    2.391890
    107          6           0      -26.202992   -2.874496    1.870066
    108          6           0      -25.872343   -5.956607    0.272560
    109          6           0      -25.358195   -4.317355    3.844959
    110          6           0      -26.331048   -4.214305    5.030512
    111          7           0      -26.341234   -0.033882    1.102230
    112          6           0      -27.073013   -0.585094    2.110032
    113          6           0      -27.854687    0.418034    2.797795
    114          6           0      -27.523421    1.571069    2.062816
    115          6           0      -26.657541    1.244131    1.009453
    116          6           0      -28.811297    0.336570    4.009591
    117          6           0      -27.757457    2.987015    2.005418
    118          8           0      -28.280850    3.770046    2.754091
    119          6           0      -27.113254    3.460099    0.600838
    120          6           0      -26.442261    4.696154    1.011948
    121          8           0      -25.316171    4.844315    1.550483
    122          8           0      -27.306280    5.678416    0.702940
    123          6           0      -26.936471    7.055615    1.032514
    124          1           0      -23.212883    0.217318   -4.187328
    125          1           0      -23.104588   -4.841202   -0.391390
    126          1           0      -27.533492   -2.268285    3.376467
    127          1           0      -26.458084    3.596774   -2.427394
    128          1           0      -24.146469    2.513743   -3.943350
    129          1           0      -26.294779    0.779125   -4.491811
    130          1           0      -25.504733    2.035349   -5.485731
    131          1           0      -27.005455    2.361072   -4.581527
    132          1           0      -23.469625    4.099502   -2.406564
    133          1           0      -24.117656    4.062093   -0.875645
    134          1           0      -25.938164    5.805093   -1.718732
    135          1           0      -25.019299    5.951448   -3.222100
    136          1           0      -20.567291   -1.030272   -4.284523
    137          1           0      -21.984889   -0.993902   -5.122316
    138          1           0      -21.243031   -2.497056   -5.215814
    139          1           0      -19.431441   -3.694728   -3.458032
    140          1           0      -20.814583   -4.539164   -4.303333
    141          1           0      -19.570511   -5.441602   -3.499729
    142          1           0      -24.259559   -5.443936    1.652701
    143          1           0      -26.940470   -4.834547    2.496720
    144          1           0      -26.951138   -5.933350    0.426187
    145          1           0      -25.620528   -7.015666    0.321688
    146          1           0      -25.815491   -5.714510   -0.788899
    147          1           0      -24.808145   -3.376390    3.874401
    148          1           0      -24.685675   -5.139700    4.089970
    149          1           0      -26.203771   -3.284711    5.586788
    150          1           0      -26.326818   -4.995173    5.791266
    151          1           0      -27.318317   -4.112989    4.581993
    152          1           0      -29.169231   -0.692720    4.033045
    153          1           0      -29.640952    1.036673    3.902912
    154          1           0      -28.203263    0.536642    4.891779
    155          1           0      -27.909413    3.722565   -0.096053
    156          1           0      -26.744785    7.592671    0.103740
    157          1           0      -26.141428    7.102931    1.775909
    158          1           0      -27.813601    7.551851    1.447653
 ---------------------------------------------------------------------

 SCF Done:  E(RPBE1PBE) =  -4067.38421786     A.U. after   16 cycles

 Excitation energies and oscillator strengths:

 Excited State   1:      Singlet-A      1.8754 eV  661.09 nm  f=0.3652  <S**2>=0.000
     309 -> 315       -0.18966
     311 -> 313        0.68798
 This state for optimization and/or second-order correction.
 Total Energy, E(TD-HF/TD-DFT) =  -4067.31529655
 Copying the excited state density for this state as the 1-particle RhoCI density.

 Excited State   2:      Singlet-A      1.8847 eV  657.86 nm  f=0.3849  <S**2>=0.000
     310 -> 316       -0.17976
     312 -> 314        0.69125
     312 <- 314       -0.10354

 Excited State   3:      Singlet-A      2.0134 eV  615.81 nm  f=0.0000  <S**2>=0.000
     312 -> 313        0.70711

 Excited State   4:      Singlet-A      2.0744 eV  597.69 nm  f=0.0000  <S**2>=0.000
     311 -> 314        0.70711

 Excited State   5:      Singlet-A      2.2462 eV  551.98 nm  f=0.0662  <S**2>=0.000
     309 -> 313        0.63542
     311 -> 315        0.29951

 The electronic state is 1-A.
 Alpha  occ. eigenvalues --  -46.92126 -46.90981 -19.26459 -19.25508 -19.20637
 Alpha  occ. eigenvalues --  -19.19808 -19.19525 -19.19286 -19.19116 -19.18677
 Alpha  occ. eigenvalues --  -14.42059 -14.41565 -14.41279 -14.40750 -14.39113
 Alpha  occ. eigenvalues --  -14.38844 -14.38779 -14.38087 -10.36805 -10.35549
 Alpha  occ. eigenvalues --  -10.33205 -10.33023 -10.31835 -10.31708 -10.29437
 Alpha  occ. eigenvalues --  -10.29063 -10.28979 -10.28683 -10.28496 -10.28481
 Alpha  occ. eigenvalues --  -10.28230 -10.28220 -10.28215 -10.28065 -10.27839
 Alpha  occ. eigenvalues --  -10.27815 -10.27716 -10.27599 -10.27501 -10.27150
 Alpha  occ. eigenvalues --  -10.27019 -10.26954 -10.26565 -10.26455 -10.26420
 Alpha  occ. eigenvalues --  -10.26212 -10.26202 -10.26173 -10.25735 -10.25661
 Alpha  occ. eigenvalues --  -10.25621 -10.25602 -10.25599 -10.25572 -10.25539
 Alpha  occ. eigenvalues --  -10.25501 -10.25482 -10.25394 -10.25264 -10.25192
 Alpha  occ. eigenvalues --  -10.25090 -10.25047 -10.24971 -10.24924 -10.24667
 Alpha  occ. eigenvalues --  -10.24562 -10.24441 -10.24277 -10.24126 -10.24098
 Alpha  occ. eigenvalues --  -10.23973 -10.23934 -10.23854 -10.23851 -10.23528
 Alpha  occ. eigenvalues --  -10.23501 -10.23490 -10.23370 -10.23285 -10.23252
 Alpha  occ. eigenvalues --  -10.23083 -10.22886 -10.22830 -10.22589 -10.22227
 Alpha  occ. eigenvalues --  -10.22156  -3.14266  -3.13395  -1.87093  -1.86655
 Alpha  occ. eigenvalues --   -1.86476  -1.86222  -1.85782  -1.85635  -1.11603
 Alpha  occ. eigenvalues --   -1.10701  -1.05558  -1.05117  -1.05014  -1.04020
 Alpha  occ. eigenvalues --   -1.03614  -1.00308  -0.99843  -0.99779  -0.98982
 Alpha  occ. eigenvalues --   -0.98357  -0.98266  -0.97985  -0.97031  -0.97023
 Alpha  occ. eigenvalues --   -0.88258  -0.87097  -0.83740  -0.83420  -0.82800
 Alpha  occ. eigenvalues --   -0.82526  -0.82443  -0.82348  -0.81788  -0.81732
 Alpha  occ. eigenvalues --   -0.81553  -0.81166  -0.80637  -0.80615  -0.78809
 Alpha  occ. eigenvalues --   -0.78307  -0.78112  -0.77998  -0.76685  -0.76682
 Alpha  occ. eigenvalues --   -0.76454  -0.75723  -0.75624  -0.75165  -0.74697
 Alpha  occ. eigenvalues --   -0.74620  -0.72742  -0.72455  -0.71931  -0.71630
 Alpha  occ. eigenvalues --   -0.71204  -0.70949  -0.70464  -0.70232  -0.69731
 Alpha  occ. eigenvalues --   -0.69176  -0.67242  -0.66992  -0.66592  -0.66210
 Alpha  occ. eigenvalues --   -0.64395  -0.63626  -0.63589  -0.63199  -0.62797
 Alpha  occ. eigenvalues --   -0.62299  -0.61616  -0.61359  -0.60474  -0.60000
 Alpha  occ. eigenvalues --   -0.59846  -0.59427  -0.59218  -0.59007  -0.58958
 Alpha  occ. eigenvalues --   -0.58596  -0.57110  -0.56348  -0.54772  -0.54543
 Alpha  occ. eigenvalues --   -0.54370  -0.54044  -0.53925  -0.53755  -0.53259
 Alpha  occ. eigenvalues --   -0.53055  -0.52898  -0.52621  -0.51940  -0.51555
 Alpha  occ. eigenvalues --   -0.51066  -0.50902  -0.50388  -0.50195  -0.50138
 Alpha  occ. eigenvalues --   -0.50039  -0.49792  -0.49220  -0.48874  -0.48558
 Alpha  occ. eigenvalues --   -0.48485  -0.47929  -0.47816  -0.47660  -0.47577
 Alpha  occ. eigenvalues --   -0.47451  -0.47303  -0.47089  -0.46835  -0.46762
 Alpha  occ. eigenvalues --   -0.46740  -0.46220  -0.45947  -0.45717  -0.45618
 Alpha  occ. eigenvalues --   -0.45585  -0.45376  -0.45218  -0.45031  -0.44757
 Alpha  occ. eigenvalues --   -0.44724  -0.44566  -0.44540  -0.44174  -0.44051
 Alpha  occ. eigenvalues --   -0.44021  -0.43821  -0.43714  -0.43537  -0.43511
 Alpha  occ. eigenvalues --   -0.43450  -0.43072  -0.42954  -0.42702  -0.42632
 Alpha  occ. eigenvalues --   -0.42546  -0.42170  -0.42114  -0.41960  -0.41785
 Alpha  occ. eigenvalues --   -0.41588  -0.41340  -0.41195  -0.41095  -0.40841
 Alpha  occ. eigenvalues --   -0.40736  -0.40595  -0.40570  -0.40471  -0.40265
 Alpha  occ. eigenvalues --   -0.40114  -0.39938  -0.39847  -0.39746  -0.39643
 Alpha  occ. eigenvalues --   -0.39460  -0.39196  -0.39060  -0.38907  -0.38851
 Alpha  occ. eigenvalues --   -0.38651  -0.38573  -0.38445  -0.38386  -0.38275
 Alpha  occ. eigenvalues --   -0.38181  -0.37977  -0.37927  -0.37732  -0.37700
 Alpha  occ. eigenvalues --   -0.37649  -0.37419  -0.37388  -0.37264  -0.37162
 Alpha  occ. eigenvalues --   -0.37035  -0.36858  -0.36789  -0.36678  -0.36643
 Alpha  occ. eigenvalues --   -0.36224  -0.36008  -0.35686  -0.35600  -0.35512
 Alpha  occ. eigenvalues --   -0.35193  -0.35144  -0.34560  -0.34509  -0.33858
 Alpha  occ. eigenvalues --   -0.33672  -0.33406  -0.32823  -0.32821  -0.32694
 Alpha  occ. eigenvalues --   -0.32432  -0.32262  -0.32009  -0.31810  -0.31415
 Alpha  occ. eigenvalues --   -0.30467  -0.30349  -0.29812  -0.29506  -0.29449
 Alpha  occ. eigenvalues --   -0.29174  -0.28734  -0.27862  -0.26974  -0.26949
 Alpha  occ. eigenvalues --   -0.26398  -0.25963  -0.25892  -0.25749  -0.25564
 Alpha  occ. eigenvalues --   -0.25539  -0.25203  -0.24990  -0.21102  -0.20724
 Alpha  occ. eigenvalues --   -0.18782  -0.18661
 Alpha virt. eigenvalues --   -0.10999  -0.10898  -0.05736  -0.04851  -0.04460
 Alpha virt. eigenvalues --   -0.03788  -0.02111  -0.01942  -0.00574   0.00178
 Alpha virt. eigenvalues --    0.00547   0.00850   0.00964   0.01338   0.01499

 Mulliken charges:
               1
     1  Mg  12.000000
     2  C    5.999899
     3  C    6.000114
     4  C    6.000111
     5  C    5.999779
     6  N    6.999996
     7  C    6.000196
     8  C    5.999894
     9  C    6.000104
    10  C    5.999711
    11  C    6.000039
    12  C    5.999972
    13  C    5.999996
    14  H    1.000091
    15  N    7.000070
    16  C    5.999697
    17  C    5.999879
    18  C    5.999795
    19  C    5.999773
    20  C    6.000021
    21  C    5.999923
    22  O    7.999788
    23  C    6.000023
    24  N    7.000010
    25  C    5.999713
    26  C    6.000053
    27  C    5.999923
    28  C    6.000323
    29  C    6.000018
    30  C    5.999974
    31  C    5.999953
    32  N    7.000028
    33  C    6.000281
    34  C    6.000295
    35  C    5.999933
    36  C    6.000262
    37  C    5.999954
    38  C    6.000195
    39  O    8.000193
    40  C    5.999990
    41  C    6.000027
    42  O    8.000020
    43  O    8.000020
    44  C    5.999989
    45  H    0.999937
    46  H    0.999946
    47  H    1.000067
    48  H    0.999993
    49  H    0.999996
    50  H    0.999979
    51  H    0.999982
    52  H    0.999876
    53  H    1.000070
    54  H    0.999958
    55  H    0.999983
    56  H    1.000020
    57  H    0.999862
    58  H    0.999855
    59  H    0.999894
    60  H    0.999911
    61  H    0.999905
    62  H    0.999973
    63  H    1.000036
    64  H    1.000018
    65  H    1.000045
    66  H    0.999909
    67  H    0.999965
    68  H    1.000062
    69  H    0.999969
    70  H    0.999946
    71  H    1.000084
    72  H    1.000058
    73  H    1.000178
    74  H    1.000186
    75  H    1.000136
    76  H    1.000093
    77  H    1.000043
    78  H    0.999991
    79  H    1.000050
    80  Mg  11.997778
    81  C    6.015469
    82  C    5.987043
    83  C    5.990726
    84  C    6.016039
    85  N    7.004400
    86  C    5.965664
    87  C    6.012487
    88  C    5.992358
    89  C    6.035432
    90  C    5.998313
    91  C    6.002186
    92  C    6.001281
    93  H    0.996893
    94  N    6.995101
    95  C    6.032391
    96  C    6.021538
    97  C    6.020121
    98  C    6.019926
    99  C    5.997039
   100  C    6.014063
   101  O    8.031732
   102  C    5.994466
   103  N    7.005175
   104  C    6.024114
   105  C    5.994554
   106  C    6.007614
   107  C    5.966705
   108  C    5.995334
   109  C    6.002344
   110  C    6.000787
   111  N    7.001281
   112  C    5.964937
   113  C    5.969635
   114  C    5.999414
   115  C    5.971255
   116  C    5.998273
   117  C    5.984009
   118  O    7.972103
   119  C    5.997718
   120  C    5.997334
   121  O    7.992110
   122  O    7.999713
   123  C    6.002455
   124  H    1.007845
   125  H    1.005525
   126  H    0.991862
   127  H    0.998550
   128  H    0.997779
   129  H    0.999476
   130  H    1.001200
   131  H    1.012726
   132  H    0.987889
   133  H    1.002923
   134  H    1.004526
   135  H    0.994645
   136  H    1.018074
   137  H    1.017187
   138  H    1.015047
   139  H    1.008529
   140  H    1.005914
   141  H    1.014755
   142  H    0.997629
   143  H    0.996367
   144  H    1.011656
   145  H    1.001903
   146  H    0.994696
   147  H    0.998756
   148  H    0.988770
   149  H    1.003053
   150  H    0.994822
   151  H    1.002601
   152  H    0.985083
   153  H    0.986934
   154  H    0.983236
   155  H    0.992517
   156  H    0.993650
   157  H    0.997324
   158  H    0.997237
 Sum of Mulliken charges = 624.00000

 Dipole moment (field-independent basis, Debye):
    X=              6.3816    Y=             -4.6834    Z=             -6.3285  Tot=             10.1345
 Quadrupole moment (field-independent basis, Debye-Ang):
   XX=           -317.9603   YY=              3.4499   ZZ=              2.8092
   XY=            111.0229   XZ=            159.8609   YZ=              6.5797

 Normal termination of Gaussian 16 at Thu Oct 14 01:49:04 2021.
