 Gaussian 16, Revision A.03,
 Gaussian 16:  ES64L-G16RevA.03 25-Dec-2016

 --------------------------------------------------------
 #p PBE1PBE/Def2SVP td=(nstates=5) density=(transition=1)
 --------------------------------------------------------

 --------------------------------
 TDDFT excited states in gaussian
 --------------------------------
 Symbolic Z-matrix:
 Charge =  0 Multiplicity = 1

                         Standard orientation:
 ---------------------------------------------------------------------
 Center     Atomic      Atomic             Coordinates (Angstroms)
 Number     Number       Type             X           Y           Z
 ---------------------------------------------------------------------
      1         12           0       30.679819    0.430789   -0.357527
      2          6           0       27.806329   -1.584296   -0.538319
      3          6           0       28.660645    3.204075   -0.589846
      4          6           0       33.304472    2.217428    0.572350
      5          6           0       32.619993   -2.503427    0.136383
      6          7           0       28.496329    0.757634   -0.285109
      7          6           0       27.475029   -0.223780   -0.368027
      8          6           0       26.166779    0.342060   -0.739960
      9          6           0       26.491153    1.894328   -0.849716
     10          6           0       27.988171    1.973015   -0.595108
     11          6           0       25.967676    2.519252   -2.165566
     12          6           0       25.097265    0.181638    0.297022
     13          6           0       25.532411    0.309593    1.764481
     14          1           0       24.591462    0.968442    2.846942
     15          7           0       30.994026    2.464951   -0.073140
     16          6           0       30.072973    3.409924   -0.342120
     17          6           0       30.698982    4.702864   -0.222203
     18          6           0       32.068987    4.457375    0.042127
     19          6           0       32.204805    2.997266    0.167364
     20          6           0       30.004013    6.033748   -0.327228
     21          6           0       33.156197    5.523429    0.174453
     22          8           0       32.892368    6.704964    0.065677
     23          6           0       34.593529    5.317839    0.551202
     24          7           0       32.590861   -0.061746    0.508714
     25          6           0       33.547281    0.883801    0.766703
     26          6           0       34.952679    0.232413    0.983595
     27          6           0       34.591426   -1.276189    1.136074
     28          6           0       33.198390   -1.295755    0.545928
     29          6           0       35.967252    0.439899   -0.166755
     30          6           0       34.400869   -1.805976    2.635214
     31          6           0       35.065821   -3.088318    2.983188
     32          7           0       30.380752   -1.569194   -0.321942
     33          6           0       31.261977   -2.578351   -0.305762
     34          6           0       30.609755   -3.844736   -0.811483
     35          6           0       29.245225   -3.437505   -0.955237
     36          6           0       29.134722   -2.091024   -0.506406
     37          6           0       31.195733   -5.226126   -1.065763
     38          6           0       27.931680   -3.954231   -1.210783
     39          8           0       27.560859   -5.086078   -1.479035
     40          6           0       26.943742   -2.741324   -0.975162
     41          6           0       26.101874   -3.087650    0.235390
     42          8           0       26.456038   -3.174591    1.364548
     43          8           0       24.789126   -3.182118   -0.175088
     44          6           0       23.827647   -3.228094    0.931152
     45          1           0       28.043452    4.062957   -0.860900
     46          1           0       34.223422    2.790086    0.708266
     47          1           0       33.306178   -3.352512    0.161581
     48          1           0       25.849247   -0.141694   -1.663672
     49          1           0       26.146031    2.514978   -0.022866
     50          1           0       25.465289    3.404557   -1.775362
     51          1           0       25.296770    1.789213   -2.618510
     52          1           0       26.767254    2.849368   -2.829040
     53          1           0       24.450125   -0.680801    0.135120
     54          1           0       24.303625    0.927807    0.252842
     55          1           0       26.481956    0.844545    1.726500
     56          1           0       25.772028   -0.723028    2.018816
     57          1           0       30.308055    6.699151    0.481474
     58          1           0       28.925389    5.884773   -0.375492
     59          1           0       30.355257    6.439091   -1.276438
     60          1           0       34.765617    4.960043    1.565813
     61          1           0       34.948891    6.347982    0.580347
     62          1           0       35.185729    4.864937   -0.244676
     63          1           0       35.381894    0.665872    1.886826
     64          1           0       35.254230   -1.939048    0.579226
     65          1           0       36.147190   -0.521855   -0.646785
     66          1           0       36.818041    1.044154    0.147677
     67          1           0       35.501245    1.063569   -0.928787
     68          1           0       33.344921   -1.866395    2.897688
     69          1           0       34.827741   -1.009987    3.245603
     70          1           0       35.735785   -3.002839    3.838473
     71          1           0       35.612651   -3.534931    2.152438
     72          1           0       34.345844   -3.846681    3.289599
     73          1           0       30.636816   -5.917171   -0.434734
     74          1           0       32.277903   -5.153727   -0.950495
     75          1           0       30.910585   -5.477609   -2.087225
     76          1           0       26.327822   -2.533241   -1.849773
     77          1           0       24.170172   -2.692287    1.816307
     78          1           0       23.737915   -4.293676    1.142534
     79          1           0       22.868875   -2.941545    0.499861
     80         12           0      -30.528349    0.355527    0.403179
     81          6           0      -28.259161   -1.683585   -1.325281
     82          6           0      -30.825953    2.267328   -2.444742
     83          6           0      -32.637450    2.277910    2.060834
     84          6           0      -29.976006   -1.616946    3.257468
     85          7           0      -29.684902    0.197500   -1.639136
     86          6           0      -28.750111   -0.697644   -2.159613
     87          6           0      -28.634717   -0.635084   -3.733282
     88          6           0      -29.331409    0.692093   -3.963339
     89          6           0      -30.013164    1.097447   -2.591609
     90          6           0      -28.270916    1.834111   -4.313210
     91          6           0      -29.545600   -1.842010   -4.234922
     92          6           0      -28.992241   -2.712448   -5.447452
     93          1           0      -28.191701   -1.836513   -6.376935
     94          7           0      -31.437577    2.073845   -0.072884
     95          6           0      -31.450754    2.708101   -1.241922
     96          6           0      -32.292669    3.875024   -1.229810
     97          6           0      -32.978904    3.816312   -0.000658
     98          6           0      -32.309560    2.702958    0.771851
     99          6           0      -32.447318    4.854842   -2.334684
    100          6           0      -34.189517    4.585145    0.487175
    101          8           0      -34.837998    4.253073    1.485975
    102          6           0      -34.591429    5.892739   -0.200763
    103          7           0      -31.167686    0.341604    2.426346
    104          6           0      -32.128398    1.254442    2.792697
    105          6           0      -32.608882    0.910294    4.200911
    106          6           0      -31.831465   -0.445447    4.570907
    107          6           0      -30.975106   -0.651537    3.349221
    108          6           0      -32.411601    2.146460    5.147801
    109          6           0      -32.683689   -1.645633    4.952584
    110          6           0      -32.273754   -2.302111    6.308004
    111          7           0      -29.345898   -1.288747    0.880721
    112          6           0      -29.205362   -1.990315    2.119142
    113          6           0      -28.250793   -3.032794    1.990618
    114          6           0      -27.865989   -2.934571    0.642839
    115          6           0      -28.524659   -1.835653    0.053282
    116          6           0      -27.774359   -4.047825    2.979132
    117          6           0      -27.048184   -3.506997   -0.378184
    118          8           0      -26.253711   -4.417795   -0.379801
    119          6           0      -27.370530   -2.772032   -1.709985
    120          6           0      -26.095482   -2.399312   -2.375034
    121          8           0      -25.292222   -1.538336   -2.027290
    122          8           0      -26.002281   -3.147673   -3.478512
    123          6           0      -24.869172   -2.900135   -4.345199
    124          1           0      -31.117184    2.872326   -3.305762
    125          1           0      -33.334099    2.959036    2.555983
    126          1           0      -29.820699   -2.293252    4.100721
    127          1           0      -27.582826   -0.825627   -3.943911
    128          1           0      -30.097037    0.587144   -4.731312
    129          1           0      -27.244427    1.467251   -4.298280
    130          1           0      -28.373473    2.632047   -3.578016
    131          1           0      -28.573648    2.179729   -5.301705
    132          1           0      -30.533367   -1.526170   -4.569268
    133          1           0      -29.721602   -2.469907   -3.361107
    134          1           0      -29.807311   -3.014445   -6.105249
    135          1           0      -28.596573   -3.669198   -5.105621
    136          1           0      -33.461759    4.732649   -2.716699
    137          1           0      -31.758760    4.645559   -3.152150
    138          1           0      -32.305912    5.888269   -2.019645
    139          1           0      -35.203303    6.330389    0.587681
    140          1           0      -35.123091    5.752922   -1.142719
    141          1           0      -33.809686    6.635449   -0.358880
    142          1           0      -33.673399    0.697050    4.297600
    143          1           0      -31.159968   -0.237228    5.403976
    144          1           0      -33.342023    2.237280    5.708421
    145          1           0      -32.146394    3.066316    4.626524
    146          1           0      -31.743243    1.907228    5.975785
    147          1           0      -32.715851   -2.430803    4.197873
    148          1           0      -33.657724   -1.211348    5.182266
    149          1           0      -31.511077   -1.706430    6.809854
    150          1           0      -31.737362   -3.238475    6.155702
    151          1           0      -33.132149   -2.411776    6.971070
    152          1           0      -28.629992   -4.722597    3.017085
    153          1           0      -27.526955   -3.501773    3.889207
    154          1           0      -26.929040   -4.626273    2.609056
    155          1           0      -27.803923   -3.560356   -2.326910
    156          1           0      -23.942464   -2.967910   -3.774671
    157          1           0      -24.803702   -1.910214   -4.797979
    158          1           0      -24.897168   -3.678887   -5.107555
 ---------------------------------------------------------------------

 SCF Done:  E(RPBE1PBE) =  -4067.39246822     A.U. after   16 cycles

 Excitation energies and oscillator strengths:

 Excited State   1:      Singlet-A      1.8294 eV  677.74 nm  f=0.3596  <S**2>=0.000
     309 -> 316        0.16654
     311 -> 313        0.69542
     311 <- 313       -0.11482
 This state for optimization and/or second-order correction.
 Total Energy, E(TD-HF/TD-DFT) =  -4067.32524003
 Copying the excited state density for this state as the 1-particle RhoCI density.

 Excited State   2:      Singlet-A      1.8615 eV  666.05 nm  f=0.3676  <S**2>=0.000
     310 -> 315        0.15512
     312 -> 314        0.69391
     312 <- 314       -0.10802

 Excited State   3:      Singlet-A      1.9696 eV  629.50 nm  f=0.0000  <S**2>=0.000
     312 -> 313        0.70711

 Excited State   4:      Singlet-A      2.0172 eV  614.62 nm  f=0.0000  <S**2>=0.000
     311 -> 314        0.70711

 Excited State   5:      Singlet-A      2.2828 eV  543.12 nm  f=0.1001  <S**2>=0.000
     309 -> 313        0.63946
     311 -> 316       -0.28976

 The electronic state is 1-A.
 Alpha  occ. eigenvalues --  -46.91951 -46.91157 -19.25967 -19.25243 -19.20576
 Alpha  occ. eigenvalues --  -19.19898 -19.19346 -19.19121 -19.18413 -19.17885
 Alpha  occ. eigenvalues --  -14.41871 -14.41766 -14.41399 -14.41126 -14.39697
 Alpha  occ. eigenvalues --  -14.39237 -14.39107 -14.38251 -10.36224 -10.35407
 Alpha  occ. eigenvalues --  -10.33129 -10.32124 -10.31715 -10.30509 -10.29431
 Alpha  occ. eigenvalues --  -10.28985 -10.28649 -10.28631 -10.28603 -10.28477
 Alpha  occ. eigenvalues --  -10.28431 -10.28425 -10.28385 -10.28340 -10.28212
 Alpha  occ. eigenvalues --  -10.28076 -10.28054 -10.27939 -10.27573 -10.27061
 Alpha  occ. eigenvalues --  -10.27015 -10.26551 -10.26477 -10.26352 -10.26317
 Alpha  occ. eigenvalues --  -10.26282 -10.26133 -10.26105 -10.26074 -10.25923
 Alpha  occ. eigenvalues --  -10.25921 -10.25782 -10.25628 -10.25392 -10.25384
 Alpha  occ. eigenvalues --  -10.25358 -10.25339 -10.25123 -10.25054 -10.25049
 Alpha  occ. eigenvalues --  -10.25020 -10.24978 -10.24820 -10.24707 -10.24433
 Alpha  occ. eigenvalues --  -10.24421 -10.24403 -10.24110 -10.24068 -10.24043
 Alpha  occ. eigenvalues --  -10.24031 -10.23954 -10.23929 -10.23905 -10.23719
 Alpha  occ. eigenvalues --  -10.23582 -10.23454 -10.23413 -10.23403 -10.23177
 Alpha  occ. eigenvalues --  -10.22933 -10.22902 -10.22884 -10.22785 -10.22769
 Alpha  occ. eigenvalues --  -10.21629  -3.14172  -3.13443  -1.86974  -1.86552
 Alpha  occ. eigenvalues --   -1.86413  -1.86296  -1.85798  -1.85698  -1.11979
 Alpha  occ. eigenvalues --   -1.11970  -1.05106  -1.04838  -1.04689  -1.04347
 Alpha  occ. eigenvalues --   -1.03765  -1.01977  -0.99445  -0.99199  -0.98739
 Alpha  occ. eigenvalues --   -0.98669  -0.97898  -0.97510  -0.97247  -0.97002
 Alpha  occ. eigenvalues --   -0.87524  -0.87160  -0.84130  -0.83832  -0.83726
 Alpha  occ. eigenvalues --   -0.82686  -0.82686  -0.82675  -0.82229  -0.81829
 Alpha  occ. eigenvalues --   -0.81539  -0.80937  -0.80622  -0.80095  -0.78994
 Alpha  occ. eigenvalues --   -0.78448  -0.78279  -0.77841  -0.76982  -0.76550
 Alpha  occ. eigenvalues --   -0.75978  -0.75878  -0.75539  -0.75141  -0.74792
 Alpha  occ. eigenvalues --   -0.74674  -0.73034  -0.72279  -0.71819  -0.71783
 Alpha  occ. eigenvalues --   -0.71117  -0.71117  -0.70341  -0.69939  -0.69493
 Alpha  occ. eigenvalues --   -0.69304  -0.67600  -0.67155  -0.66077  -0.65812
 Alpha  occ. eigenvalues --   -0.63923  -0.63467  -0.63274  -0.63241  -0.63016
 Alpha  occ. eigenvalues --   -0.62060  -0.61784  -0.61510  -0.60280  -0.59803
 Alpha  occ. eigenvalues --   -0.59715  -0.59607  -0.59558  -0.59090  -0.59046
 Alpha  occ. eigenvalues --   -0.58887  -0.57097  -0.56640  -0.55202  -0.54503
 Alpha  occ. eigenvalues --   -0.54186  -0.54062  -0.53707  -0.53507  -0.53390
 Alpha  occ. eigenvalues --   -0.53216  -0.52676  -0.52351  -0.51995  -0.51887
 Alpha  occ. eigenvalues --   -0.51166  -0.51098  -0.50518  -0.50212  -0.49952
 Alpha  occ. eigenvalues --   -0.49863  -0.49652  -0.49182  -0.49029  -0.48671
 Alpha  occ. eigenvalues --   -0.48446  -0.48038  -0.47597  -0.47553  -0.47439
 Alpha  occ. eigenvalues --   -0.47209  -0.47078  -0.46873  -0.46756  -0.46733
 Alpha  occ. eigenvalues --   -0.46608  -0.46406  -0.46244  -0.45963  -0.45929
 Alpha  occ. eigenvalues --   -0.45759  -0.45520  -0.45509  -0.45262  -0.45119
 Alpha  occ. eigenvalues --   -0.44877  -0.44605  -0.44562  -0.44246  -0.44212
 Alpha  occ. eigenvalues --   -0.43981  -0.43923  -0.43820  -0.43509  -0.43409
 Alpha  occ. eigenvalues --   -0.43295  -0.43184  -0.43057  -0.43051  -0.42861
 Alpha  occ. eigenvalues --   -0.42581  -0.42349  -0.42213  -0.42186  -0.41889
 Alpha  occ. eigenvalues --   -0.41873  -0.41792  -0.41588  -0.41527  -0.41441
 Alpha  occ. eigenvalues --   -0.41334  -0.41086  -0.41049  -0.40796  -0.40681
 Alpha  occ. eigenvalues --   -0.40585  -0.40234  -0.40057  -0.39958  -0.39893
 Alpha  occ. eigenvalues --   -0.39522  -0.39464  -0.39298  -0.39287  -0.39151
 Alpha  occ. eigenvalues --   -0.39064  -0.38828  -0.38684  -0.38546  -0.38401
 Alpha  occ. eigenvalues --   -0.38195  -0.38019  -0.37897  -0.37642  -0.37555
 Alpha  occ. eigenvalues --   -0.37430  -0.37361  -0.37255  -0.37155  -0.37025
 Alpha  occ. eigenvalues --   -0.36989  -0.36782  -0.36705  -0.36492  -0.36052
 Alpha  occ. eigenvalues --   -0.35987  -0.35657  -0.35641  -0.35372  -0.35255
 Alpha  occ. eigenvalues --   -0.35003  -0.34778  -0.34655  -0.34020  -0.33714
 Alpha  occ. eigenvalues --   -0.33407  -0.33288  -0.32822  -0.32648  -0.32411
 Alpha  occ. eigenvalues --   -0.32236  -0.32075  -0.31949  -0.31492  -0.31439
 Alpha  occ. eigenvalues --   -0.31338  -0.30728  -0.29891  -0.29470  -0.29395
 Alpha  occ. eigenvalues --   -0.29020  -0.28653  -0.28162  -0.27196  -0.26985
 Alpha  occ. eigenvalues --   -0.26461  -0.26383  -0.26072  -0.25491  -0.25298
 Alpha  occ. eigenvalues --   -0.25235  -0.25118  -0.24611  -0.21211  -0.21012
 Alpha  occ. eigenvalues --   -0.18689  -0.18678
 Alpha virt. eigenvalues --   -0.11223  -0.11059  -0.05318  -0.05303  -0.03987
 Alpha virt. eigenvalues --   -0.03535  -0.01892  -0.01617  -0.01308   0.00550
 Alpha virt. eigenvalues --    0.00899   0.01030   0.01424   0.01445   0.01760

 Mulliken charges:
               1
     1  Mg  12.001971
     2  C    6.027391
     3  C    5.992351
     4  C    5.978532
     5  C    6.006892
     6  N    7.006621
     7  C    5.960315
     8  C    6.013969
     9  C    5.991643
    10  C    6.028975
    11  C    5.998116
    12  C    6.003503
    13  C    6.005530
    14  H    0.991565
    15  N    6.992073
    16  C    6.039739
    17  C    6.022048
    18  C    6.005459
    19  C    6.042405
    20  C    5.997299
    21  C    6.010793
    22  O    8.018560
    23  C    5.996384
    24  N    6.996677
    25  C    6.032816
    26  C    5.993527
    27  C    6.005378
    28  C    5.976676
    29  C    6.000175
    30  C    6.007156
    31  C    6.000282
    32  N    7.001072
    33  C    5.965799
    34  C    5.961187
    35  C    6.005323
    36  C    5.962799
    37  C    6.000414
    38  C    5.984881
    39  O    7.975105
    40  C    5.998008
    41  C    5.997249
    42  O    7.996299
    43  O    7.997986
    44  C    6.001231
    45  H    1.012240
    46  H    1.007548
    47  H    0.988946
    48  H    0.998657
    49  H    0.998097
    50  H    1.000125
    51  H    1.012214
    52  H    0.998182
    53  H    1.003500
    54  H    0.991434
    55  H    0.990539
    56  H    1.006654
    57  H    1.015855
    58  H    1.017068
    59  H    1.017420
    60  H    1.010438
    61  H    1.010663
    62  H    1.011097
    63  H    0.999664
    64  H    1.000307
    65  H    1.012060
    66  H    1.000111
    67  H    0.995361
    68  H    1.000795
    69  H    0.986144
    70  H    0.994733
    71  H    0.999428
    72  H    1.002960
    73  H    0.981710
    74  H    0.982667
    75  H    0.981348
    76  H    0.990302
    77  H    0.996035
    78  H    0.998636
    79  H    0.994888
    80  Mg  12.000015
    81  C    5.999934
    82  C    5.999999
    83  C    6.000107
    84  C    6.000012
    85  N    6.999962
    86  C    6.000122
    87  C    5.999972
    88  C    6.000021
    89  C    5.999882
    90  C    6.000018
    91  C    5.999997
    92  C    5.999991
    93  H    1.000023
    94  N    7.000023
    95  C    5.999864
    96  C    5.999913
    97  C    5.999914
    98  C    5.999858
    99  C    6.000024
   100  C    5.999967
   101  O    7.999866
   102  C    6.000027
   103  N    6.999989
   104  C    5.999853
   105  C    6.000063
   106  C    5.999943
   107  C    6.000120
   108  C    6.000014
   109  C    5.999971
   110  C    5.999998
   111  N    7.000008
   112  C    6.000132
   113  C    6.000114
   114  C    6.000052
   115  C    6.000097
   116  C    6.000003
   117  C    6.000039
   118  O    8.000175
   119  C    6.000051
   120  C    6.000009
   121  O    8.000015
   122  O    8.000005
   123  C    5.999986
   124  H    0.999942
   125  H    0.999979
   126  H    1.000068
   127  H    0.999991
   128  H    0.999990
   129  H    0.999944
   130  H    1.000009
   131  H    0.999979
   132  H    1.000041
   133  H    0.999971
   134  H    1.000014
   135  H    0.999992
   136  H    0.999918
   137  H    0.999928
   138  H    0.999910
   139  H    0.999933
   140  H    0.999960
   141  H    0.999957
   142  H    0.999992
   143  H    1.000011
   144  H    0.999986
   145  H    1.000018
   146  H    0.999961
   147  H    1.000003
   148  H    1.000051
   149  H    1.000007
   150  H    0.999997
   151  H    1.000023
   152  H    1.000069
   153  H    1.000058
   154  H    1.000065
   155  H    1.000025
   156  H    1.000013
   157  H    1.000021
   158  H    1.000026
 Sum of Mulliken charges = 624.00000

 Dipole moment (field-independent basis, Debye):
    X=              1.8400    Y=             10.0071    Z=              0.3784  Tot=             10.1819
 Quadrupole moment (field-independent basis, Debye-Ang):
   XX=            107.5492   YY=              8.8234   ZZ=             -1.4051
   XY=            310.1023   XZ=             11.1977   YZ=             -4.6371

 Normal termination of Gaussian 16 at Thu Oct 14 00:34:02 2021.
