 Gaussian 16, Revision A.03,
 Gaussian 16:  ES64L-G16RevA.03 25-Dec-2016

 --------------------------------------------------------
 #p PBE1PBE/Def2SVP td=(nstates=5) density=(transition=1)
 --------------------------------------------------------

 --------------------------------
 TDDFT excited states in gaussian
 --------------------------------
 Symbolic Z-matrix:
 Charge =  0 Multiplicity = 1

                         Standard orientation:
 ---------------------------------------------------------------------
 Center     Atomic      Atomic             Coordinates (Angstroms)
 Number     Number       Type             X           Y           Z
 ---------------------------------------------------------------------
      1         12           0      -21.228322    0.031276   -0.433643
      2          6           0      -17.823273   -0.440427   -0.098126
      3          6           0      -21.676455   -3.259037    0.473742
      4          6           0      -24.599259    0.640746   -0.179606
      5          6           0      -20.702054    3.340419   -1.223454
      6          7           0      -19.932860   -1.582244    0.310641
      7          6           0      -18.552780   -1.540004    0.284540
      8          6           0      -17.934792   -2.868579    0.712079
      9          6           0      -19.164942   -3.838319    0.555672
     10          6           0      -20.315157   -2.844177    0.490285
     11          6           0      -19.109046   -4.908961   -0.626203
     12          6           0      -17.237877   -2.892843    2.109815
     13          6           0      -15.888983   -3.578778    2.160227
     14          1           0      -15.938320   -4.884166    2.938900
     15          7           0      -22.854116   -1.152702    0.088848
     16          6           0      -22.840458   -2.454942    0.394909
     17          6           0      -24.191212   -2.954078    0.586086
     18          6           0      -25.108614   -1.928485    0.429580
     19          6           0      -24.217003   -0.722582    0.148211
     20          6           0      -24.498747   -4.465836    1.019767
     21          6           0      -26.670059   -2.043346    0.464029
     22          8           0      -27.188729   -3.161131    0.743577
     23          6           0      -27.547929   -0.874107    0.229836
     24          7           0      -22.516130    1.858881   -0.434228
     25          6           0      -23.827603    1.815635   -0.484698
     26          6           0      -24.439124    3.103789   -0.994732
     27          6           0      -23.248676    4.082634   -1.274509
     28          6           0      -22.046631    3.046264   -1.046273
     29          6           0      -25.601611    3.058035   -2.037199
     30          6           0      -23.069026    5.373151   -0.423534
     31          6           0      -22.154668    6.389423   -1.075860
     32          7           0      -19.567593    1.247075   -0.617848
     33          6           0      -19.489072    2.594790   -1.038754
     34          6           0      -18.098748    2.931535   -1.180377
     35          6           0      -17.371651    1.760568   -0.854980
     36          6           0      -18.332786    0.821389   -0.491470
     37          6           0      -17.531954    4.193834   -1.812970
     38          6           0      -16.088183    1.263611   -0.785290
     39          8           0      -14.983898    1.724048   -0.888347
     40          6           0      -16.297233   -0.199185   -0.130071
     41          6           0      -15.924108    0.000414    1.338087
     42          8           0      -16.642437    0.479855    2.194079
     43          8           0      -14.621328   -0.448592    1.482736
     44          6           0      -14.020466   -0.248431    2.797476
     45          1           0      -21.878638   -4.328670    0.558224
     46          1           0      -25.681046    0.760438   -0.094489
     47          1           0      -20.383791    4.315906   -1.597034
     48          1           0      -17.216572   -3.155024   -0.055625
     49          1           0      -19.329447   -4.289903    1.534669
     50          1           0      -20.168004   -5.110837   -0.786937
     51          1           0      -18.717113   -5.882520   -0.330756
     52          1           0      -18.599068   -4.606530   -1.540737
     53          1           0      -17.954155   -3.428837    2.732847
     54          1           0      -17.212527   -1.955892    2.665833
     55          1           0      -15.188511   -2.880354    2.618665
     56          1           0      -15.513139   -3.834512    1.169353
     57          1           0      -23.619498   -5.087472    1.194043
     58          1           0      -25.116343   -4.960709    0.269506
     59          1           0      -24.973534   -4.542056    1.996981
     60          1           0      -27.358259   -0.470341   -0.764197
     61          1           0      -27.508976   -0.169458    1.060635
     62          1           0      -28.533624   -1.313940    0.083166
     63          1           0      -24.932931    3.719495   -0.242676
     64          1           0      -23.094625    4.258837   -2.339346
     65          1           0      -25.938030    2.020636   -2.062288
     66          1           0      -25.342801    3.487155   -3.005858
     67          1           0      -26.483550    3.630450   -1.749394
     68          1           0      -22.730756    5.040436    0.557686
     69          1           0      -24.085289    5.738179   -0.275347
     70          1           0      -22.496852    7.379237   -0.772700
     71          1           0      -22.141233    6.373427   -2.166304
     72          1           0      -21.159826    6.302572   -0.638924
     73          1           0      -16.458947    4.150485   -1.999944
     74          1           0      -17.784750    5.029714   -1.161954
     75          1           0      -18.007342    4.403682   -2.771197
     76          1           0      -15.755637   -0.965062   -0.686087
     77          1           0      -13.913500    0.819414    2.988886
     78          1           0      -13.071731   -0.775192    2.894200
     79          1           0      -14.701254   -0.613449    3.565979
     80         12           0       20.882072    0.690639   -0.287212
     81          6           0       19.836817   -2.670695   -0.335378
     82          6           0       17.585292    1.507152    0.460017
     83          6           0       21.818163    3.845462    0.225026
     84          6           0       24.156490   -0.446114   -0.115812
     85          7           0       18.985519   -0.535870    0.179812
     86          6           0       18.726997   -1.878561   -0.015737
     87          6           0       17.261866   -2.253529   -0.092040
     88          6           0       16.538841   -0.905389    0.140307
     89          6           0       17.728911    0.098392    0.288239
     90          6           0       15.532507   -0.497493   -1.010983
     91          6           0       16.754707   -3.356181    0.940962
     92          6           0       17.440140   -3.425862    2.315345
     93          1           0       16.682547   -2.851149    3.548770
     94          7           0       19.861182    2.394102    0.245414
     95          6           0       18.518577    2.542270    0.448361
     96          6           0       18.198020    3.960289    0.663871
     97          6           0       19.435702    4.670271    0.594740
     98          6           0       20.455843    3.604530    0.351694
     99          6           0       16.783279    4.481622    0.886332
    100          6           0       19.449452    6.217111    0.886663
    101          8           0       18.393964    6.750292    1.199254
    102          6           0       20.815732    7.023181    0.862719
    103          7           0       22.686038    1.528380    0.130256
    104          6           0       22.867633    2.909367    0.148685
    105          6           0       24.455221    3.280215    0.215526
    106          6           0       25.101503    1.791290    0.256111
    107          6           0       23.902096    0.918353    0.071882
    108          6           0       24.921792    4.141870   -0.994605
    109          6           0       25.889982    1.429735    1.587209
    110          6           0       27.319666    0.877256    1.478702
    111          7           0       21.870172   -1.174274   -0.356947
    112          6           0       23.195153   -1.516546   -0.267912
    113          6           0       23.303460   -2.989920   -0.316780
    114          6           0       21.969662   -3.456283   -0.464814
    115          6           0       21.152989   -2.291572   -0.431149
    116          6           0       24.549592   -3.824734   -0.211559
    117          6           0       21.172068   -4.695368   -0.530764
    118          8           0       21.480516   -5.890774   -0.643570
    119          6           0       19.743791   -4.184973   -0.650451
    120          6           0       19.138721   -4.516335   -1.896362
    121          8           0       19.380636   -3.869695   -2.948331
    122          8           0       18.246151   -5.598742   -1.765731
    123          6           0       17.422585   -5.957956   -2.915721
    124          1           0       16.547852    1.840737    0.525181
    125          1           0       22.147577    4.886171    0.229991
    126          1           0       25.213906   -0.717100   -0.117106
    127          1           0       17.167912   -2.627469   -1.110867
    128          1           0       16.119006   -0.970052    1.143478
    129          1           0       14.510717   -0.553227   -0.635667
    130          1           0       15.695873   -1.212887   -1.817421
    131          1           0       15.708132    0.523919   -1.350217
    132          1           0       17.004371   -4.273382    0.406061
    133          1           0       15.670940   -3.283937    1.035062
    134          1           0       18.415167   -2.938535    2.283072
    135          1           0       17.688610   -4.467255    2.515649
    136          1           0       16.545657    4.731418    1.920396
    137          1           0       16.050879    3.859882    0.371272
    138          1           0       16.617483    5.399493    0.322579
    139          1           0       21.331537    6.740104   -0.055154
    140          1           0       21.379967    6.731517    1.748136
    141          1           0       20.705159    8.089188    1.061470
    142          1           0       24.570927    3.933025    1.080202
    143          1           0       25.730145    1.695916   -0.629511
    144          1           0       25.322025    3.459838   -1.744480
    145          1           0       25.611462    4.935910   -0.708091
    146          1           0       24.128370    4.730917   -1.454315
    147          1           0       25.250902    0.748624    2.150055
    148          1           0       25.938329    2.402688    2.076198
    149          1           0       27.625247    0.350829    2.383330
    150          1           0       27.905818    1.784499    1.334032
    151          1           0       27.281699    0.211426    0.616280
    152          1           0       25.237113   -3.200063    0.358067
    153          1           0       24.890825   -3.860023   -1.246151
    154          1           0       24.399169   -4.844564    0.143810
    155          1           0       19.262884   -4.702049    0.179594
    156          1           0       17.934847   -6.331740   -3.802312
    157          1           0       16.816561   -5.104109   -3.220096
    158          1           0       16.652101   -6.632047   -2.541123
 ---------------------------------------------------------------------

 SCF Done:  E(RPBE1PBE) =  -4067.36550957     A.U. after   16 cycles

 Excitation energies and oscillator strengths:

 Excited State   1:      Singlet-A      1.8697 eV  663.13 nm  f=0.3639  <S**2>=0.000
     309 -> 316        0.17515
     312 -> 314        0.69176
     312 <- 314       -0.10386
 This state for optimization and/or second-order correction.
 Total Energy, E(TD-HF/TD-DFT) =  -4067.29680035
 Copying the excited state density for this state as the 1-particle RhoCI density.

 Excited State   2:      Singlet-A      1.8858 eV  657.45 nm  f=0.3636  <S**2>=0.000
     310 -> 315        0.14494
     311 -> 313        0.69202

 Excited State   3:      Singlet-A      1.9208 eV  645.47 nm  f=0.0000  <S**2>=0.000
     312 -> 313        0.70710

 Excited State   4:      Singlet-A      2.1500 eV  576.66 nm  f=0.0000  <S**2>=0.000
     311 -> 314        0.70711

 Excited State   5:      Singlet-A      2.2300 eV  555.97 nm  f=0.1178  <S**2>=0.000
     310 -> 313        0.65858
     311 -> 315       -0.22015
     311 -> 318       -0.11530

 The electronic state is 1-A.
 Alpha  occ. eigenvalues --  -46.92799 -46.92331 -19.26392 -19.25328 -19.20412
 Alpha  occ. eigenvalues --  -19.20279 -19.20080 -19.19774 -19.19449 -19.18480
 Alpha  occ. eigenvalues --  -14.42039 -14.41726 -14.41704 -14.41591 -14.39982
 Alpha  occ. eigenvalues --  -14.39508 -14.38998 -14.38423 -10.36952 -10.36307
 Alpha  occ. eigenvalues --  -10.33835 -10.33622 -10.32517 -10.30949 -10.30228
 Alpha  occ. eigenvalues --  -10.29689 -10.29539 -10.29291 -10.29058 -10.29017
 Alpha  occ. eigenvalues --  -10.28546 -10.28482 -10.28439 -10.28419 -10.28418
 Alpha  occ. eigenvalues --  -10.28125 -10.27946 -10.27852 -10.27427 -10.27134
 Alpha  occ. eigenvalues --  -10.26870 -10.26845 -10.26471 -10.26369 -10.26221
 Alpha  occ. eigenvalues --  -10.26197 -10.26130 -10.26097 -10.26078 -10.26055
 Alpha  occ. eigenvalues --  -10.26021 -10.25912 -10.25886 -10.25839 -10.25534
 Alpha  occ. eigenvalues --  -10.25460 -10.25411 -10.25356 -10.25330 -10.25269
 Alpha  occ. eigenvalues --  -10.25154 -10.25143 -10.24997 -10.24636 -10.24565
 Alpha  occ. eigenvalues --  -10.24560 -10.24541 -10.24533 -10.24511 -10.24462
 Alpha  occ. eigenvalues --  -10.24458 -10.24409 -10.24395 -10.24292 -10.24248
 Alpha  occ. eigenvalues --  -10.24233 -10.24045 -10.23841 -10.23635 -10.23518
 Alpha  occ. eigenvalues --  -10.23373 -10.23345 -10.23124 -10.23006 -10.22818
 Alpha  occ. eigenvalues --  -10.21446  -3.14821  -3.14532  -1.87644  -1.87329
 Alpha  occ. eigenvalues --   -1.87198  -1.87048  -1.86923  -1.86759  -1.10374
 Alpha  occ. eigenvalues --   -1.09658  -1.05093  -1.05042  -1.03798  -1.03488
 Alpha  occ. eigenvalues --   -1.02897  -1.01755  -0.99170  -0.98840  -0.98383
 Alpha  occ. eigenvalues --   -0.98161  -0.97905  -0.97216  -0.97203  -0.96470
 Alpha  occ. eigenvalues --   -0.87504  -0.86240  -0.83479  -0.83468  -0.83072
 Alpha  occ. eigenvalues --   -0.82767  -0.82320  -0.82182  -0.81384  -0.81112
 Alpha  occ. eigenvalues --   -0.80581  -0.80433  -0.80366  -0.79791  -0.78807
 Alpha  occ. eigenvalues --   -0.78655  -0.78155  -0.77939  -0.77238  -0.77039
 Alpha  occ. eigenvalues --   -0.76359  -0.75842  -0.75216  -0.75197  -0.74606
 Alpha  occ. eigenvalues --   -0.74404  -0.72505  -0.71988  -0.71486  -0.71354
 Alpha  occ. eigenvalues --   -0.70988  -0.70936  -0.70820  -0.69757  -0.69487
 Alpha  occ. eigenvalues --   -0.69254  -0.66947  -0.66794  -0.66171  -0.66120
 Alpha  occ. eigenvalues --   -0.64092  -0.63628  -0.63488  -0.63321  -0.62820
 Alpha  occ. eigenvalues --   -0.62488  -0.61617  -0.61217  -0.60184  -0.60031
 Alpha  occ. eigenvalues --   -0.59917  -0.59662  -0.59223  -0.59092  -0.58720
 Alpha  occ. eigenvalues --   -0.58716  -0.57016  -0.56404  -0.54768  -0.54363
 Alpha  occ. eigenvalues --   -0.54155  -0.54121  -0.53597  -0.53574  -0.53206
 Alpha  occ. eigenvalues --   -0.52996  -0.52534  -0.52327  -0.52073  -0.51756
 Alpha  occ. eigenvalues --   -0.50839  -0.50647  -0.50135  -0.50054  -0.49700
 Alpha  occ. eigenvalues --   -0.49482  -0.48964  -0.48779  -0.48726  -0.48374
 Alpha  occ. eigenvalues --   -0.48348  -0.48100  -0.48033  -0.47770  -0.47590
 Alpha  occ. eigenvalues --   -0.47219  -0.47164  -0.46932  -0.46657  -0.46612
 Alpha  occ. eigenvalues --   -0.46207  -0.46146  -0.45785  -0.45713  -0.45481
 Alpha  occ. eigenvalues --   -0.45461  -0.45232  -0.45159  -0.44926  -0.44755
 Alpha  occ. eigenvalues --   -0.44547  -0.44537  -0.44272  -0.43984  -0.43928
 Alpha  occ. eigenvalues --   -0.43908  -0.43822  -0.43751  -0.43526  -0.43385
 Alpha  occ. eigenvalues --   -0.43260  -0.43206  -0.42910  -0.42873  -0.42825
 Alpha  occ. eigenvalues --   -0.42263  -0.42082  -0.42025  -0.41770  -0.41610
 Alpha  occ. eigenvalues --   -0.41334  -0.41268  -0.41120  -0.41045  -0.40970
 Alpha  occ. eigenvalues --   -0.40922  -0.40825  -0.40606  -0.40543  -0.40091
 Alpha  occ. eigenvalues --   -0.40064  -0.40030  -0.39935  -0.39739  -0.39580
 Alpha  occ. eigenvalues --   -0.39515  -0.39448  -0.39421  -0.39281  -0.38913
 Alpha  occ. eigenvalues --   -0.38885  -0.38810  -0.38684  -0.38518  -0.38254
 Alpha  occ. eigenvalues --   -0.38020  -0.37862  -0.37797  -0.37749  -0.37508
 Alpha  occ. eigenvalues --   -0.37436  -0.37387  -0.37240  -0.37187  -0.37077
 Alpha  occ. eigenvalues --   -0.37052  -0.36885  -0.36866  -0.36490  -0.36463
 Alpha  occ. eigenvalues --   -0.35951  -0.35854  -0.35514  -0.35369  -0.35223
 Alpha  occ. eigenvalues --   -0.35102  -0.34903  -0.34777  -0.34638  -0.34194
 Alpha  occ. eigenvalues --   -0.33959  -0.33837  -0.33039  -0.32589  -0.32503
 Alpha  occ. eigenvalues --   -0.32446  -0.32070  -0.32041  -0.31586  -0.31553
 Alpha  occ. eigenvalues --   -0.31424  -0.30487  -0.29969  -0.29652  -0.29267
 Alpha  occ. eigenvalues --   -0.29054  -0.28842  -0.28705  -0.27223  -0.26882
 Alpha  occ. eigenvalues --   -0.26774  -0.26398  -0.26189  -0.25964  -0.25599
 Alpha  occ. eigenvalues --   -0.25312  -0.25310  -0.24940  -0.21022  -0.20872
 Alpha  occ. eigenvalues --   -0.18951  -0.18469
 Alpha virt. eigenvalues --   -0.11098  -0.10728  -0.05477  -0.05260  -0.03960
 Alpha virt. eigenvalues --   -0.03919  -0.02521  -0.02376  -0.01154  -0.01014
 Alpha virt. eigenvalues --   -0.00935   0.00832   0.00882   0.01125   0.01257

 Mulliken charges:
               1
     1  Mg  12.000006
     2  C    5.999722
     3  C    6.000394
     4  C    6.000331
     5  C    5.999737
     6  N    6.999913
     7  C    6.000774
     8  C    5.999735
     9  C    6.000277
    10  C    5.998965
    11  C    6.000042
    12  C    5.999832
    13  C    5.999938
    14  H    1.000220
    15  N    7.000193
    16  C    5.999000
    17  C    5.999313
    18  C    5.999699
    19  C    5.998849
    20  C    6.000064
    21  C    5.999610
    22  O    7.999351
    23  C    6.000143
    24  N    6.999885
    25  C    5.998997
    26  C    6.000500
    27  C    5.999864
    28  C    6.001012
    29  C    6.000022
    30  C    5.999837
    31  C    5.999930
    32  N    7.000040
    33  C    6.001172
    34  C    6.000887
    35  C    6.000120
    36  C    6.000660
    37  C    6.000018
    38  C    6.000527
    39  O    8.001074
    40  C    6.000030
    41  C    6.000042
    42  O    8.000246
    43  O    8.000054
    44  C    5.999917
    45  H    0.999720
    46  H    0.999765
    47  H    1.000190
    48  H    0.999944
    49  H    0.999984
    50  H    1.000171
    51  H    0.999741
    52  H    0.999657
    53  H    1.000309
    54  H    0.999932
    55  H    0.999940
    56  H    0.999997
    57  H    0.999432
    58  H    0.999488
    59  H    0.999464
    60  H    0.999716
    61  H    0.999706
    62  H    0.999597
    63  H    0.999753
    64  H    0.999924
    65  H    1.000180
    66  H    0.999727
    67  H    0.999888
    68  H    1.000088
    69  H    1.000309
    70  H    1.000159
    71  H    1.000028
    72  H    0.999831
    73  H    1.000446
    74  H    1.000580
    75  H    1.000586
    76  H    1.000356
    77  H    1.000087
    78  H    1.000199
    79  H    1.000161
    80  Mg  12.002876
    81  C    5.984843
    82  C    6.010401
    83  C    6.021431
    84  C    5.985712
    85  N    6.995846
    86  C    6.031417
    87  C    5.989092
    88  C    6.010927
    89  C    5.964219
    90  C    6.003510
    91  C    5.999092
    92  C    5.997411
    93  H    1.014151
    94  N    7.005864
    95  C    5.959873
    96  C    5.980713
    97  C    5.987796
    98  C    5.961722
    99  C    6.004120
   100  C    5.989490
   101  O    7.983235
   102  C    5.999908
   103  N    7.001207
   104  C    5.965510
   105  C    6.007458
   106  C    5.987658
   107  C    6.033235
   108  C    6.003660
   109  C    5.995500
   110  C    5.999613
   111  N    6.999007
   112  C    6.038586
   113  C    6.026490
   114  C    6.004765
   115  C    6.027872
   116  C    6.000917
   117  C    6.019377
   118  O    8.028124
   119  C    6.000142
   120  C    6.003288
   121  O    8.006649
   122  O    8.001791
   123  C    5.996273
   124  H    0.989370
   125  H    0.992585
   126  H    1.007328
   127  H    0.999945
   128  H    0.995994
   129  H    0.994802
   130  H    0.987760
   131  H    1.006006
   132  H    0.994682
   133  H    1.008110
   134  H    0.995231
   135  H    0.997608
   136  H    0.981134
   137  H    0.984341
   138  H    0.985346
   139  H    0.992854
   140  H    0.990550
   141  H    0.988279
   142  H    1.001139
   143  H    1.001254
   144  H    0.989749
   145  H    0.995575
   146  H    1.004866
   147  H    0.998233
   148  H    1.012058
   149  H    1.001212
   150  H    1.005780
   151  H    0.995862
   152  H    1.015556
   153  H    1.017893
   154  H    1.014223
   155  H    1.009715
   156  H    1.002530
   157  H    1.006766
   158  H    1.004893
 Sum of Mulliken charges = 624.00000

 Dipole moment (field-independent basis, Debye):
    X=              4.7161    Y=             -8.8894    Z=             -1.1740  Tot=             10.1312
 Quadrupole moment (field-independent basis, Debye-Ang):
   XX=            172.9288   YY=             -7.8685   ZZ=              0.9095
   XY=           -188.3367   XZ=            -20.8153   YZ=             -0.9120

 Normal termination of Gaussian 16 at Thu Oct 14 18:04:46 2021.
