 Gaussian 16, Revision A.03,
 Gaussian 16:  ES64L-G16RevA.03 25-Dec-2016

 --------------------------------------------------------
 #p PBE1PBE/Def2SVP td=(nstates=5) density=(transition=1)
 --------------------------------------------------------

 --------------------------------
 TDDFT excited states in gaussian
 --------------------------------
 Symbolic Z-matrix:
 Charge =  0 Multiplicity = 1

                         Standard orientation:
 ---------------------------------------------------------------------
 Center     Atomic      Atomic             Coordinates (Angstroms)
 Number     Number       Type             X           Y           Z
 ---------------------------------------------------------------------
      1         12           0        9.877235   -0.291391    0.168891
      2          6           0        8.111911    2.359702   -1.304338
      3          6           0       12.153025    1.814270    1.397094
      4          6           0       11.410230   -2.870131    1.382830
      5          6           0        7.979407   -2.441024   -2.037010
      6          7           0       10.116507    1.837510   -0.060922
      7          6           0        9.247596    2.743642   -0.526466
      8          6           0        9.788111    4.146716   -0.426168
      9          6           0       11.269702    3.904552    0.070831
     10          6           0       11.188955    2.455583    0.510789
     11          6           0       12.443274    4.172123   -0.926509
     12          6           0        8.970614    4.990067    0.680126
     13          6           0        8.528315    6.404999    0.182042
     14          1           0        7.456457    7.085984    1.193856
     15          7           0       11.360052   -0.473272    1.412821
     16          6           0       12.197817    0.528394    1.872796
     17          6           0       12.999665   -0.003219    2.940264
     18          6           0       12.807263   -1.442556    3.029225
     19          6           0       11.731279   -1.674282    1.991000
     20          6           0       14.011193    0.934878    3.659376
     21          6           0       13.379193   -2.571482    3.879131
     22          8           0       13.014897   -3.761203    3.868507
     23          6           0       14.389540   -2.091676    4.860102
     24          7           0        9.770204   -2.307091   -0.429170
     25          6           0       10.570271   -3.154766    0.296490
     26          6           0       10.479091   -4.584492   -0.238060
     27          6           0        9.183297   -4.509621   -1.087597
     28          6           0        8.977509   -3.003700   -1.262405
     29          6           0       11.832126   -4.982313   -0.950929
     30          6           0        7.904237   -5.222237   -0.473795
     31          6           0        6.817017   -5.666595   -1.465309
     32          7           0        8.323136   -0.132662   -1.344325
     33          6           0        7.698022   -1.076414   -2.101667
     34          6           0        6.626244   -0.496699   -2.879821
     35          6           0        6.731226    0.858969   -2.518484
     36          6           0        7.807699    1.045946   -1.639590
     37          6           0        5.602337   -1.116616   -3.858344
     38          6           0        6.119133    2.140985   -2.730022
     39          8           0        5.094792    2.492262   -3.254349
     40          6           0        7.131964    3.203801   -2.054563
     41          6           0        6.183284    4.087747   -1.372127
     42          8           0        5.629071    3.941694   -0.253393
     43          8           0        6.002057    5.118470   -2.215704
     44          6           0        5.061565    6.171749   -1.830827
     45          1           0       12.850082    2.503641    1.878371
     46          1           0       11.872215   -3.745529    1.844457
     47          1           0        7.373719   -3.146697   -2.609392
     48          1           0        9.736205    4.731162   -1.345189
     49          1           0       11.564273    4.436610    0.975597
     50          1           0       12.880293    3.208685   -1.188944
     51          1           0       13.161726    4.767087   -0.362913
     52          1           0       12.222691    4.662656   -1.873923
     53          1           0        9.457486    5.101025    1.649736
     54          1           0        8.128620    4.363649    0.974865
     55          1           0        8.069633    6.337107   -0.804201
     56          1           0        9.320826    7.151922    0.142605
     57          1           0       13.500002    1.390986    4.506049
     58          1           0       14.234191    1.846618    3.103846
     59          1           0       15.016317    0.547499    3.824358
     60          1           0       14.011770   -1.373480    5.586968
     61          1           0       15.165779   -1.692680    4.206002
     62          1           0       14.869742   -2.893147    5.422198
     63          1           0       10.359756   -5.211877    0.645355
     64          1           0        9.350312   -5.012288   -2.040198
     65          1           0       11.694350   -5.010686   -2.031741
     66          1           0       12.283844   -5.945756   -0.716070
     67          1           0       12.655216   -4.271790   -0.872091
     68          1           0        7.432052   -4.417142    0.089853
     69          1           0        8.068459   -6.077638    0.181861
     70          1           0        5.888453   -5.109634   -1.333595
     71          1           0        6.511844   -6.712998   -1.486046
     72          1           0        7.173511   -5.345508   -2.443036
     73          1           0        6.067717   -2.028633   -4.232177
     74          1           0        5.374640   -0.430661   -4.675334
     75          1           0        4.724552   -1.366946   -3.262678
     76          1           0        7.630550    3.779583   -2.834499
     77          1           0        5.627946    7.077526   -1.615015
     78          1           0        4.376509    5.847661   -1.048117
     79          1           0        4.469222    6.433916   -2.707380
     80         12           0       -8.991081   -1.025353    0.395308
     81          6           0      -11.287583    1.622715    0.863026
     82          6           0       -6.498812    1.309857    0.141405
     83          6           0       -6.980681   -3.427041   -0.680803
     84          6           0      -11.711453   -3.219021    0.198199
     85          7           0       -8.935963    1.228735    0.330530
     86          6           0      -10.001952    2.069905    0.660441
     87          6           0       -9.478977    3.502049    0.931921
     88          6           0       -7.933281    3.376243    0.672241
     89          6           0       -7.715616    1.863283    0.392848
     90          6           0       -7.305482    4.383064   -0.275749
     91          6           0       -9.809770    4.104186    2.306423
     92          6           0      -10.532154    5.477576    2.235388
     93          1           0       -9.856328    6.607232    2.980446
     94          7           0       -6.977609   -1.040064   -0.104626
     95          6           0       -6.106762    0.006228   -0.190181
     96          6           0       -4.789930   -0.537410   -0.422977
     97          6           0       -4.940169   -1.935172   -0.818372
     98          6           0       -6.355001   -2.144973   -0.552165
     99          6           0       -3.472544    0.392394   -0.525379
    100          6           0       -4.063704   -2.838322   -1.574253
    101          8           0       -4.265073   -3.986005   -1.852687
    102          6           0       -2.753571   -2.233975   -2.070576
    103          7           0       -9.370454   -3.012352   -0.365906
    104          6           0       -8.340712   -3.818780   -0.689180
    105          6           0       -8.811839   -5.268037   -0.830653
    106          6           0      -10.214554   -5.231980   -0.203103
    107          6           0      -10.464418   -3.746567   -0.067147
    108          6           0       -8.843893   -5.724360   -2.361134
    109          6           0      -10.140789   -5.921349    1.253214
    110          6           0       -9.420855   -5.095500    2.354076
    111          7           0      -11.094966   -0.946179    0.613089
    112          6           0      -12.031389   -1.903945    0.518231
    113          6           0      -13.315243   -1.301306    0.757133
    114          6           0      -13.064359    0.045303    0.942425
    115          6           0      -11.691923    0.256690    0.784561
    116          6           0      -14.687088   -1.948051    0.780428
    117          6           0      -13.779280    1.304502    1.167381
    118          8           0      -14.910512    1.696378    1.228307
    119          6           0      -12.653687    2.371756    1.204868
    120          6           0      -12.989254    3.341420    0.132716
    121          8           0      -13.169153    2.984310   -1.004413
    122          8           0      -13.154838    4.638189    0.591953
    123          6           0      -13.781635    5.609436   -0.365935
    124          1           0       -5.693979    2.036614    0.270890
    125          1           0       -6.341575   -4.280173   -0.919428
    126          1           0      -12.586795   -3.850196    0.365257
    127          1           0       -9.850115    4.162336    0.147822
    128          1           0       -7.417241    3.641572    1.595163
    129          1           0       -8.063278    4.885007   -0.875511
    130          1           0       -6.547530    3.955067   -0.932304
    131          1           0       -6.878718    5.159880    0.358203
    132          1           0       -8.982650    4.324760    2.981219
    133          1           0      -10.435272    3.424340    2.884475
    134          1           0      -11.588607    5.386762    2.487685
    135          1           0      -10.512714    5.802993    1.196058
    136          1           0       -2.698823   -0.058432    0.095981
    137          1           0       -3.570095    1.410180   -0.149520
    138          1           0       -3.056024    0.604118   -1.510127
    139          1           0       -2.239939   -1.960805   -1.148507
    140          1           0       -3.054315   -1.364129   -2.653691
    141          1           0       -2.103696   -2.928856   -2.603364
    142          1           0       -8.228114   -5.975807   -0.241113
    143          1           0      -11.072750   -5.624574   -0.748962
    144          1           0       -8.671794   -6.800953   -2.372218
    145          1           0       -8.110664   -5.300306   -3.048010
    146          1           0       -9.865417   -5.512736   -2.676672
    147          1           0       -9.694965   -6.915481    1.227537
    148          1           0      -11.140649   -5.965009    1.685260
    149          1           0       -9.220666   -5.627951    3.283269
    150          1           0      -10.064037   -4.250828    2.601466
    151          1           0       -8.493330   -4.715651    1.924451
    152          1           0      -14.819506   -2.693336    1.564393
    153          1           0      -14.749367   -2.447151   -0.186236
    154          1           0      -15.496582   -1.218209    0.791293
    155          1           0      -12.792054    2.843325    2.177626
    156          1           0      -13.117856    6.457362   -0.197068
    157          1           0      -14.801129    5.881181   -0.092908
    158          1           0      -13.847056    5.370736   -1.427170
 ---------------------------------------------------------------------

 SCF Done:  E(RPBE1PBE) =  -4067.37788703     A.U. after   16 cycles

 Excitation energies and oscillator strengths:

 Excited State   1:      Singlet-A      1.8362 eV  675.22 nm  f=0.0000  <S**2>=0.000
     312 -> 313        0.70706
 This state for optimization and/or second-order correction.
 Total Energy, E(TD-HF/TD-DFT) =  -4067.31040733
 Copying the excited state density for this state as the 1-particle RhoCI density.

 Excited State   2:      Singlet-A      1.8623 eV  665.77 nm  f=0.6335  <S**2>=0.000
     309 -> 315        0.10292
     310 -> 316        0.13827
     311 -> 313        0.57736
     312 -> 314       -0.38350

 Excited State   3:      Singlet-A      1.8806 eV  659.28 nm  f=0.1502  <S**2>=0.000
     309 -> 315       -0.15923
     311 -> 313        0.38617
     312 -> 314        0.57126

 Excited State   4:      Singlet-A      1.9643 eV  631.19 nm  f=0.0000  <S**2>=0.000
     311 -> 314        0.70706

 Excited State   5:      Singlet-A      2.2033 eV  562.72 nm  f=0.1190  <S**2>=0.000
     310 -> 313        0.66373
     311 -> 316       -0.22496

 The electronic state is 1-A.
 Alpha  occ. eigenvalues --  -46.92755 -46.91069 -19.25658 -19.25630 -19.19886
 Alpha  occ. eigenvalues --  -19.19624 -19.19403 -19.19316 -19.18826 -19.18429
 Alpha  occ. eigenvalues --  -14.42148 -14.41516 -14.41362 -14.41211 -14.39248
 Alpha  occ. eigenvalues --  -14.39199 -14.38696 -14.38179 -10.35694 -10.35633
 Alpha  occ. eigenvalues --  -10.33100 -10.32117 -10.31952 -10.31282 -10.29528
 Alpha  occ. eigenvalues --  -10.29071 -10.29050 -10.28895 -10.28564 -10.28387
 Alpha  occ. eigenvalues --  -10.28372 -10.28329 -10.28300 -10.28289 -10.28143
 Alpha  occ. eigenvalues --  -10.27805 -10.27785 -10.27684 -10.27517 -10.27214
 Alpha  occ. eigenvalues --  -10.27105 -10.27073 -10.26823 -10.26664 -10.26625
 Alpha  occ. eigenvalues --  -10.26358 -10.26297 -10.26265 -10.25754 -10.25699
 Alpha  occ. eigenvalues --  -10.25670 -10.25667 -10.25666 -10.25660 -10.25605
 Alpha  occ. eigenvalues --  -10.25596 -10.25593 -10.25398 -10.25279 -10.25209
 Alpha  occ. eigenvalues --  -10.25145 -10.25126 -10.25041 -10.24575 -10.24566
 Alpha  occ. eigenvalues --  -10.24553 -10.24551 -10.24214 -10.24151 -10.24056
 Alpha  occ. eigenvalues --  -10.24031 -10.24026 -10.24014 -10.23946 -10.23765
 Alpha  occ. eigenvalues --  -10.23573 -10.23428 -10.23421 -10.23354 -10.23324
 Alpha  occ. eigenvalues --  -10.23236 -10.22896 -10.22866 -10.22537 -10.22324
 Alpha  occ. eigenvalues --  -10.22102  -3.14743  -3.13483  -1.87565  -1.87130
 Alpha  occ. eigenvalues --   -1.86958  -1.86310  -1.85870  -1.85723  -1.10850
 Alpha  occ. eigenvalues --   -1.10257  -1.06247  -1.05679  -1.05637  -1.04097
 Alpha  occ. eigenvalues --   -1.02279  -1.00455  -0.99936  -0.99645  -0.99070
 Alpha  occ. eigenvalues --   -0.98790  -0.98354  -0.98351  -0.97117  -0.96432
 Alpha  occ. eigenvalues --   -0.87200  -0.86525  -0.83505  -0.83025  -0.82897
 Alpha  occ. eigenvalues --   -0.82621  -0.82411  -0.82407  -0.81912  -0.81873
 Alpha  occ. eigenvalues --   -0.81251  -0.80704  -0.80690  -0.80386  -0.78910
 Alpha  occ. eigenvalues --   -0.78537  -0.78202  -0.77604  -0.76759  -0.76602
 Alpha  occ. eigenvalues --   -0.76544  -0.75726  -0.75302  -0.75018  -0.74710
 Alpha  occ. eigenvalues --   -0.74201  -0.72538  -0.72471  -0.71706  -0.71508
 Alpha  occ. eigenvalues --   -0.71300  -0.70870  -0.70341  -0.70289  -0.69813
 Alpha  occ. eigenvalues --   -0.69406  -0.67374  -0.67329  -0.66684  -0.66058
 Alpha  occ. eigenvalues --   -0.63672  -0.63535  -0.63461  -0.63267  -0.62400
 Alpha  occ. eigenvalues --   -0.62329  -0.61706  -0.61455  -0.60573  -0.60071
 Alpha  occ. eigenvalues --   -0.59737  -0.59666  -0.59517  -0.59481  -0.59100
 Alpha  occ. eigenvalues --   -0.58886  -0.56692  -0.56477  -0.54856  -0.54814
 Alpha  occ. eigenvalues --   -0.54463  -0.54104  -0.53846  -0.53681  -0.53352
 Alpha  occ. eigenvalues --   -0.53185  -0.52706  -0.52453  -0.51987  -0.51676
 Alpha  occ. eigenvalues --   -0.50990  -0.50502  -0.50428  -0.50133  -0.49733
 Alpha  occ. eigenvalues --   -0.49558  -0.49021  -0.48982  -0.48562  -0.48512
 Alpha  occ. eigenvalues --   -0.48036  -0.47843  -0.47743  -0.47550  -0.47405
 Alpha  occ. eigenvalues --   -0.47192  -0.46867  -0.46853  -0.46789  -0.46511
 Alpha  occ. eigenvalues --   -0.46340  -0.46282  -0.46036  -0.45967  -0.45685
 Alpha  occ. eigenvalues --   -0.45561  -0.45298  -0.45160  -0.45128  -0.44820
 Alpha  occ. eigenvalues --   -0.44646  -0.44468  -0.44199  -0.44131  -0.43886
 Alpha  occ. eigenvalues --   -0.43849  -0.43803  -0.43748  -0.43628  -0.43467
 Alpha  occ. eigenvalues --   -0.43180  -0.42876  -0.42794  -0.42773  -0.42719
 Alpha  occ. eigenvalues --   -0.42338  -0.42190  -0.42052  -0.42047  -0.41803
 Alpha  occ. eigenvalues --   -0.41683  -0.41493  -0.41273  -0.41179  -0.40936
 Alpha  occ. eigenvalues --   -0.40709  -0.40682  -0.40627  -0.40554  -0.40421
 Alpha  occ. eigenvalues --   -0.40362  -0.40153  -0.40024  -0.39915  -0.39750
 Alpha  occ. eigenvalues --   -0.39651  -0.39148  -0.38986  -0.38738  -0.38660
 Alpha  occ. eigenvalues --   -0.38485  -0.38351  -0.38338  -0.38017  -0.37975
 Alpha  occ. eigenvalues --   -0.37869  -0.37795  -0.37731  -0.37644  -0.37553
 Alpha  occ. eigenvalues --   -0.37519  -0.37148  -0.37129  -0.36958  -0.36940
 Alpha  occ. eigenvalues --   -0.36804  -0.36760  -0.36709  -0.36300  -0.36162
 Alpha  occ. eigenvalues --   -0.36145  -0.36131  -0.35765  -0.35581  -0.35565
 Alpha  occ. eigenvalues --   -0.35273  -0.35085  -0.34592  -0.34493  -0.33847
 Alpha  occ. eigenvalues --   -0.33734  -0.33130  -0.32906  -0.32879  -0.32649
 Alpha  occ. eigenvalues --   -0.32517  -0.32095  -0.31933  -0.31194  -0.31050
 Alpha  occ. eigenvalues --   -0.30608  -0.30468  -0.29541  -0.29424  -0.29265
 Alpha  occ. eigenvalues --   -0.28942  -0.28596  -0.28000  -0.27064  -0.27063
 Alpha  occ. eigenvalues --   -0.26477  -0.26053  -0.25993  -0.25803  -0.25674
 Alpha  occ. eigenvalues --   -0.25577  -0.25305  -0.24902  -0.21190  -0.20954
 Alpha  occ. eigenvalues --   -0.19013  -0.18870
 Alpha virt. eigenvalues --   -0.11406  -0.11088  -0.05821  -0.04825  -0.04548
 Alpha virt. eigenvalues --   -0.03508  -0.02040  -0.01750  -0.00953   0.00073
 Alpha virt. eigenvalues --    0.00737   0.00874   0.00968   0.01322   0.01361

 Mulliken charges:
               1
     1  Mg  12.000000
     2  C    6.000000
     3  C    6.000000
     4  C    6.000000
     5  C    6.000000
     6  N    7.000000
     7  C    6.000000
     8  C    6.000000
     9  C    6.000000
    10  C    6.000000
    11  C    6.000000
    12  C    6.000000
    13  C    6.000000
    14  H    1.000000
    15  N    7.000000
    16  C    6.000000
    17  C    6.000000
    18  C    6.000000
    19  C    6.000000
    20  C    6.000000
    21  C    6.000000
    22  O    8.000000
    23  C    6.000000
    24  N    7.000000
    25  C    6.000000
    26  C    6.000000
    27  C    6.000000
    28  C    6.000000
    29  C    6.000000
    30  C    6.000000
    31  C    6.000000
    32  N    7.000000
    33  C    6.000000
    34  C    6.000000
    35  C    6.000000
    36  C    6.000000
    37  C    6.000000
    38  C    6.000000
    39  O    8.000000
    40  C    6.000000
    41  C    6.000000
    42  O    8.000000
    43  O    8.000000
    44  C    6.000000
    45  H    1.000000
    46  H    1.000000
    47  H    1.000000
    48  H    1.000000
    49  H    1.000000
    50  H    1.000000
    51  H    1.000000
    52  H    1.000000
    53  H    1.000000
    54  H    1.000000
    55  H    1.000000
    56  H    1.000000
    57  H    1.000000
    58  H    1.000000
    59  H    1.000000
    60  H    1.000000
    61  H    1.000000
    62  H    1.000000
    63  H    1.000000
    64  H    1.000000
    65  H    1.000000
    66  H    1.000000
    67  H    1.000000
    68  H    1.000000
    69  H    1.000000
    70  H    1.000000
    71  H    1.000000
    72  H    1.000000
    73  H    1.000000
    74  H    1.000000
    75  H    1.000000
    76  H    1.000000
    77  H    1.000000
    78  H    1.000000
    79  H    1.000000
    80  Mg  12.000000
    81  C    6.000000
    82  C    6.000000
    83  C    6.000000
    84  C    6.000000
    85  N    7.000000
    86  C    6.000000
    87  C    6.000000
    88  C    6.000000
    89  C    6.000000
    90  C    6.000000
    91  C    6.000000
    92  C    6.000000
    93  H    1.000000
    94  N    7.000000
    95  C    6.000000
    96  C    6.000000
    97  C    6.000000
    98  C    6.000000
    99  C    6.000000
   100  C    6.000000
   101  O    8.000000
   102  C    6.000000
   103  N    7.000000
   104  C    6.000000
   105  C    6.000000
   106  C    6.000000
   107  C    6.000000
   108  C    6.000000
   109  C    6.000000
   110  C    6.000000
   111  N    7.000000
   112  C    6.000000
   113  C    6.000000
   114  C    6.000000
   115  C    6.000000
   116  C    6.000000
   117  C    6.000000
   118  O    8.000000
   119  C    6.000000
   120  C    6.000000
   121  O    8.000000
   122  O    8.000000
   123  C    6.000000
   124  H    1.000000
   125  H    1.000000
   126  H    1.000000
   127  H    1.000000
   128  H    1.000000
   129  H    1.000000
   130  H    1.000000
   131  H    1.000000
   132  H    1.000000
   133  H    1.000000
   134  H    1.000000
   135  H    1.000000
   136  H    1.000000
   137  H    1.000000
   138  H    1.000000
   139  H    1.000000
   140  H    1.000000
   141  H    1.000000
   142  H    1.000000
   143  H    1.000000
   144  H    1.000000
   145  H    1.000000
   146  H    1.000000
   147  H    1.000000
   148  H    1.000000
   149  H    1.000000
   150  H    1.000000
   151  H    1.000000
   152  H    1.000000
   153  H    1.000000
   154  H    1.000000
   155  H    1.000000
   156  H    1.000000
   157  H    1.000000
   158  H    1.000000
 Sum of Mulliken charges = 624.00000

 Dipole moment (field-independent basis, Debye):
    X=              0.0001    Y=             -0.0000    Z=              0.0000  Tot=              0.0001
 Quadrupole moment (field-independent basis, Debye-Ang):
   XX=             -0.0002   YY=             -0.0000   ZZ=              0.0000
   XY=             -0.0001   XZ=              0.0005   YZ=             -0.0000

 Normal termination of Gaussian 16 at Thu Oct 14 19:40:03 2021.
