 Gaussian 16, Revision A.03,
 Gaussian 16:  ES64L-G16RevA.03 25-Dec-2016

 --------------------------------------------------------
 #p PBE1PBE/Def2SVP td=(nstates=5) density=(transition=1)
 --------------------------------------------------------

 --------------------------------
 TDDFT excited states in gaussian
 --------------------------------
 Symbolic Z-matrix:
 Charge =  0 Multiplicity = 1

                         Standard orientation:
 ---------------------------------------------------------------------
 Center     Atomic      Atomic             Coordinates (Angstroms)
 Number     Number       Type             X           Y           Z
 ---------------------------------------------------------------------
      1         12           0      -20.256931    0.617777    0.401071
      2          6           0      -19.346379   -1.626975   -2.094004
      3          6           0      -21.027224   -2.029306    2.436375
      4          6           0      -21.433351    2.860154    2.681863
      5          6           0      -19.633818    3.190795   -1.970560
      6          7           0      -20.227979   -1.564204    0.185493
      7          6           0      -19.697749   -2.228249   -0.889069
      8          6           0      -19.724588   -3.717058   -0.534503
      9          6           0      -20.525791   -3.820637    0.751039
     10          6           0      -20.565578   -2.356822    1.174874
     11          6           0      -21.878702   -4.480184    0.740461
     12          6           0      -18.295823   -4.441395   -0.487465
     13          6           0      -18.287045   -5.895771    0.083816
     14          1           0      -18.459453   -7.080978   -0.901895
     15          7           0      -20.968077    0.420725    2.340728
     16          6           0      -21.243140   -0.738707    2.988496
     17          6           0      -21.805722   -0.375265    4.263047
     18          6           0      -21.924851    1.044454    4.321493
     19          6           0      -21.464246    1.512024    3.092033
     20          6           0      -22.174696   -1.432225    5.257770
     21          6           0      -22.597838    1.867313    5.458441
     22          8           0      -22.967955    3.015035    5.287218
     23          6           0      -22.946522    1.311206    6.755760
     24          7           0      -20.471999    2.600636    0.343211
     25          6           0      -20.939346    3.357161    1.417449
     26          6           0      -20.923139    4.867747    1.125762
     27          6           0      -20.100287    4.922556   -0.206199
     28          6           0      -20.026758    3.460036   -0.613009
     29          6           0      -22.209806    5.575960    1.234513
     30          6           0      -18.658968    5.679134   -0.223851
     31          6           0      -18.411821    6.864286   -1.162033
     32          7           0      -19.653735    0.791646   -1.703201
     33          6           0      -19.473825    1.898780   -2.484047
     34          6           0      -19.050727    1.541200   -3.796028
     35          6           0      -18.904085    0.105939   -3.682095
     36          6           0      -19.376055   -0.291803   -2.399827
     37          6           0      -18.752246    2.514483   -4.871991
     38          6           0      -18.425810   -1.065963   -4.378883
     39          8           0      -17.882407   -1.249725   -5.450356
     40          6           0      -18.723688   -2.281134   -3.318492
     41          6           0      -19.468761   -3.393871   -3.960741
     42          8           0      -20.609789   -3.299178   -4.356744
     43          8           0      -18.741680   -4.522025   -4.041129
     44          6           0      -19.469903   -5.787996   -4.437572
     45          1           0      -21.223749   -2.867609    3.108412
     46          1           0      -21.822308    3.556497    3.427469
     47          1           0      -19.475765    4.113077   -2.533797
     48          1           0      -20.283810   -4.100226   -1.387945
     49          1           0      -19.973045   -4.422984    1.471545
     50          1           0      -22.502924   -3.592645    0.839349
     51          1           0      -21.991252   -5.221375    1.531838
     52          1           0      -22.131318   -4.895704   -0.235291
     53          1           0      -17.737348   -3.775747    0.170993
     54          1           0      -17.858190   -4.459878   -1.484886
     55          1           0      -19.090457   -6.050413    0.802944
     56          1           0      -17.350730   -6.035028    0.624191
     57          1           0      -21.928029   -2.468804    5.025967
     58          1           0      -23.263094   -1.419669    5.305084
     59          1           0      -21.836845   -1.204512    6.268954
     60          1           0      -23.481706    0.364227    6.817847
     61          1           0      -23.459805    1.991703    7.435020
     62          1           0      -21.967956    1.208939    7.224389
     63          1           0      -20.272556    5.162317    1.949666
     64          1           0      -20.856474    5.369977   -0.851055
     65          1           0      -22.292544    6.335586    2.012300
     66          1           0      -22.980400    4.826003    1.414887
     67          1           0      -22.487351    6.134347    0.340581
     68          1           0      -17.904644    4.932893   -0.472564
     69          1           0      -18.291478    6.081757    0.720812
     70          1           0      -17.811267    6.635398   -2.042785
     71          1           0      -18.083263    7.778468   -0.668458
     72          1           0      -19.367176    7.114960   -1.623283
     73          1           0      -19.550701    3.255668   -4.897601
     74          1           0      -18.595968    2.037612   -5.839231
     75          1           0      -17.928427    3.137898   -4.522973
     76          1           0      -17.743804   -2.677137   -3.053803
     77          1           0      -18.650941   -6.420491   -4.779396
     78          1           0      -20.180666   -5.547714   -5.227998
     79          1           0      -19.906989   -6.194099   -3.525238
     80         12           0       20.659621    0.710174   -0.229416
     81          6           0       18.627997   -2.363930    0.256288
     82          6           0       23.238329   -1.233191    0.769341
     83          6           0       22.236298    3.454833   -0.398411
     84          6           0       17.555533    2.444757   -0.401968
     85          7           0       20.856242   -1.506243    0.472953
     86          6           0       19.955348   -2.555277    0.401629
     87          6           0       20.576659   -3.944217    0.588286
     88          6           0       21.944706   -3.509244    1.198690
     89          6           0       22.058748   -1.983348    0.814440
     90          6           0       22.079574   -3.717240    2.674309
     91          6           0       20.653643   -4.869211   -0.672414
     92          6           0       20.577605   -6.345189   -0.466428
     93          1           0       21.458787   -7.179080   -1.391069
     94          7           0       22.550757    1.086596    0.095540
     95          6           0       23.527162    0.134548    0.456171
     96          6           0       24.808007    0.776715    0.385996
     97          6           0       24.500382    2.115826   -0.114820
     98          6           0       23.087150    2.231133   -0.151017
     99          6           0       26.191408    0.064206    0.619188
    100          6           0       25.515063    3.149647   -0.496858
    101          8           0       25.184847    4.304423   -0.861349
    102          6           0       26.975966    2.884135   -0.526268
    103          7           0       20.048440    2.689152   -0.218126
    104          6           0       20.916844    3.697481   -0.318608
    105          6           0       20.245223    5.104071   -0.425815
    106          6           0       18.806645    4.646976   -0.872493
    107          6           0       18.765020    3.157944   -0.432515
    108          6           0       20.213220    5.850256    0.946768
    109          6           0       18.599321    4.756466   -2.441486
    110          6           0       18.883814    6.096365   -3.152212
    111          7           0       18.527223    0.184149   -0.148197
    112          6           0       17.421791    1.012886   -0.302949
    113          6           0       16.211368    0.235581   -0.174923
    114          6           0       16.636345   -1.086956    0.004778
    115          6           0       18.054829   -1.075351    0.103495
    116          6           0       14.812474    0.719619   -0.359680
    117          6           0       16.163771   -2.455232    0.170302
    118          8           0       15.058233   -2.980134    0.155492
    119          6           0       17.526475   -3.320592    0.245039
    120          6           0       17.394685   -4.154881    1.427116
    121          8           0       17.297825   -3.770850    2.603304
    122          8           0       16.955629   -5.382526    1.021366
    123          6           0       16.679000   -6.385642    1.998964
    124          1           0       24.042006   -1.949234    0.954257
    125          1           0       22.739136    4.421613   -0.466034
    126          1           0       16.636352    3.029986   -0.478364
    127          1           0       19.994344   -4.453967    1.356152
    128          1           0       22.769525   -3.966796    0.653214
    129          1           0       22.016834   -2.733787    3.140171
    130          1           0       23.072105   -4.106448    2.900791
    131          1           0       21.342862   -4.357891    3.158599
    132          1           0       21.626039   -4.693290   -1.131531
    133          1           0       19.898148   -4.519977   -1.375724
    134          1           0       19.531797   -6.575323   -0.668964
    135          1           0       20.631974   -6.625059    0.585716
    136          1           0       26.779159   -0.126385   -0.278281
    137          1           0       26.074429   -0.849933    1.200608
    138          1           0       26.693910    0.786259    1.263994
    139          1           0       27.340446    2.868248    0.501184
    140          1           0       27.413901    3.718353   -1.075026
    141          1           0       27.110442    1.961049   -1.089139
    142          1           0       20.826489    5.654173   -1.166595
    143          1           0       17.976371    5.156254   -0.384165
    144          1           0       20.881226    6.706051    0.846239
    145          1           0       20.453775    5.248002    1.822253
    146          1           0       19.178396    6.193845    0.981437
    147          1           0       17.549287    4.567082   -2.663063
    148          1           0       19.152240    3.923751   -2.875828
    149          1           0       19.649072    5.858068   -3.890770
    150          1           0       19.312414    6.724283   -2.370583
    151          1           0       18.002940    6.503745   -3.648173
    152          1           0       14.927112    1.700790   -0.820973
    153          1           0       14.390986    0.807631    0.641631
    154          1           0       14.175409    0.036661   -0.921628
    155          1           0       17.619979   -3.930748   -0.653146
    156          1           0       16.895956   -6.037180    3.008959
    157          1           0       17.369295   -7.198057    1.771520
    158          1           0       15.680584   -6.800678    1.868637
 ---------------------------------------------------------------------

 SCF Done:  E(RPBE1PBE) =  -4067.37790200     A.U. after   16 cycles

 Excitation energies and oscillator strengths:

 Excited State   1:      Singlet-A      1.7491 eV  708.86 nm  f=0.0000  <S**2>=0.000
     312 -> 313        0.70711
 This state for optimization and/or second-order correction.
 Total Energy, E(TD-HF/TD-DFT) =  -4067.31362518
 Copying the excited state density for this state as the 1-particle RhoCI density.

 Excited State   2:      Singlet-A      1.8204 eV  681.10 nm  f=0.3665  <S**2>=0.000
     309 -> 316       -0.15127
     311 -> 313        0.70057
     311 <- 313       -0.12603

 Excited State   3:      Singlet-A      1.8570 eV  667.66 nm  f=0.3796  <S**2>=0.000
     310 -> 315        0.17287
     312 -> 314        0.69302
     312 <- 314       -0.11171

 Excited State   4:      Singlet-A      2.1147 eV  586.30 nm  f=0.0000  <S**2>=0.000
     311 -> 314        0.70711

 Excited State   5:      Singlet-A      2.2290 eV  556.24 nm  f=0.0883  <S**2>=0.000
     310 -> 314        0.64388
     312 -> 315       -0.27283

 The electronic state is 1-A.
 Alpha  occ. eigenvalues --  -46.92333 -46.91247 -19.25380 -19.25043 -19.20039
 Alpha  occ. eigenvalues --  -19.19554 -19.19259 -19.18906 -19.18457 -19.17799
 Alpha  occ. eigenvalues --  -14.42200 -14.41672 -14.41527 -14.41090 -14.39412
 Alpha  occ. eigenvalues --  -14.39219 -14.38710 -14.38083 -10.36039 -10.34933
 Alpha  occ. eigenvalues --  -10.33051 -10.32674 -10.31791 -10.31233 -10.29340
 Alpha  occ. eigenvalues --  -10.29310 -10.29122 -10.28910 -10.28830 -10.28574
 Alpha  occ. eigenvalues --  -10.28443 -10.28378 -10.28322 -10.28285 -10.28073
 Alpha  occ. eigenvalues --  -10.27996 -10.27655 -10.27425 -10.27303 -10.27110
 Alpha  occ. eigenvalues --  -10.26860 -10.26720 -10.26717 -10.26394 -10.26066
 Alpha  occ. eigenvalues --  -10.26028 -10.26015 -10.25973 -10.25923 -10.25785
 Alpha  occ. eigenvalues --  -10.25772 -10.25739 -10.25736 -10.25510 -10.25461
 Alpha  occ. eigenvalues --  -10.25314 -10.25309 -10.25252 -10.25127 -10.25109
 Alpha  occ. eigenvalues --  -10.25034 -10.24995 -10.24896 -10.24748 -10.24704
 Alpha  occ. eigenvalues --  -10.24692 -10.24651 -10.24596 -10.24574 -10.24493
 Alpha  occ. eigenvalues --  -10.24489 -10.24336 -10.24052 -10.23676 -10.23584
 Alpha  occ. eigenvalues --  -10.23492 -10.23471 -10.23397 -10.23187 -10.23183
 Alpha  occ. eigenvalues --  -10.23156 -10.23082 -10.23020 -10.23012 -10.22935
 Alpha  occ. eigenvalues --  -10.22874  -3.14570  -3.13485  -1.87380  -1.86941
 Alpha  occ. eigenvalues --   -1.86816  -1.86342  -1.85862  -1.85710  -1.11225
 Alpha  occ. eigenvalues --   -1.10594  -1.05677  -1.04892  -1.04256  -1.02284
 Alpha  occ. eigenvalues --   -1.01716  -1.01532  -0.99838  -0.99672  -0.98782
 Alpha  occ. eigenvalues --   -0.98606  -0.98352  -0.97929  -0.97170  -0.96982
 Alpha  occ. eigenvalues --   -0.87979  -0.86783  -0.83754  -0.83461  -0.83135
 Alpha  occ. eigenvalues --   -0.83006  -0.82629  -0.82382  -0.81864  -0.81808
 Alpha  occ. eigenvalues --   -0.81237  -0.81166  -0.80978  -0.80546  -0.78992
 Alpha  occ. eigenvalues --   -0.78886  -0.78312  -0.77977  -0.77423  -0.76777
 Alpha  occ. eigenvalues --   -0.76691  -0.76373  -0.75695  -0.75478  -0.75110
 Alpha  occ. eigenvalues --   -0.75079  -0.73110  -0.72902  -0.72100  -0.71750
 Alpha  occ. eigenvalues --   -0.71610  -0.71554  -0.70555  -0.70187  -0.69834
 Alpha  occ. eigenvalues --   -0.69504  -0.67773  -0.67219  -0.66253  -0.65371
 Alpha  occ. eigenvalues --   -0.63661  -0.63654  -0.63252  -0.63044  -0.62703
 Alpha  occ. eigenvalues --   -0.62564  -0.61416  -0.61330  -0.60095  -0.60076
 Alpha  occ. eigenvalues --   -0.59895  -0.59596  -0.59507  -0.59094  -0.58982
 Alpha  occ. eigenvalues --   -0.58738  -0.56584  -0.55985  -0.55413  -0.55051
 Alpha  occ. eigenvalues --   -0.54355  -0.54267  -0.53977  -0.53574  -0.53428
 Alpha  occ. eigenvalues --   -0.53322  -0.52903  -0.52555  -0.52366  -0.51676
 Alpha  occ. eigenvalues --   -0.50955  -0.50406  -0.50311  -0.50148  -0.49743
 Alpha  occ. eigenvalues --   -0.49428  -0.49338  -0.49213  -0.49065  -0.48740
 Alpha  occ. eigenvalues --   -0.48384  -0.48245  -0.47848  -0.47772  -0.47347
 Alpha  occ. eigenvalues --   -0.47314  -0.47116  -0.47050  -0.47019  -0.46887
 Alpha  occ. eigenvalues --   -0.46716  -0.46459  -0.46021  -0.45859  -0.45774
 Alpha  occ. eigenvalues --   -0.45592  -0.45536  -0.45416  -0.45052  -0.44899
 Alpha  occ. eigenvalues --   -0.44792  -0.44553  -0.44542  -0.44408  -0.44357
 Alpha  occ. eigenvalues --   -0.44041  -0.44037  -0.43920  -0.43865  -0.43677
 Alpha  occ. eigenvalues --   -0.43582  -0.43448  -0.43203  -0.42994  -0.42841
 Alpha  occ. eigenvalues --   -0.42809  -0.42519  -0.42396  -0.42291  -0.42124
 Alpha  occ. eigenvalues --   -0.41956  -0.41788  -0.41568  -0.41328  -0.41262
 Alpha  occ. eigenvalues --   -0.41200  -0.41056  -0.40961  -0.40893  -0.40771
 Alpha  occ. eigenvalues --   -0.40729  -0.40095  -0.39926  -0.39890  -0.39812
 Alpha  occ. eigenvalues --   -0.39639  -0.39557  -0.39530  -0.39263  -0.39221
 Alpha  occ. eigenvalues --   -0.39032  -0.38852  -0.38793  -0.38507  -0.38497
 Alpha  occ. eigenvalues --   -0.38147  -0.38056  -0.37884  -0.37653  -0.37644
 Alpha  occ. eigenvalues --   -0.37528  -0.37521  -0.37041  -0.36856  -0.36755
 Alpha  occ. eigenvalues --   -0.36626  -0.36384  -0.36311  -0.36139  -0.36121
 Alpha  occ. eigenvalues --   -0.35797  -0.35707  -0.35525  -0.35275  -0.35070
 Alpha  occ. eigenvalues --   -0.34700  -0.34443  -0.34370  -0.34222  -0.34192
 Alpha  occ. eigenvalues --   -0.33738  -0.33558  -0.33113  -0.32771  -0.32711
 Alpha  occ. eigenvalues --   -0.32284  -0.32249  -0.31901  -0.31500  -0.31326
 Alpha  occ. eigenvalues --   -0.30972  -0.30684  -0.29837  -0.29467  -0.29235
 Alpha  occ. eigenvalues --   -0.29091  -0.28668  -0.27866  -0.27217  -0.26596
 Alpha  occ. eigenvalues --   -0.26274  -0.26044  -0.25750  -0.25500  -0.25328
 Alpha  occ. eigenvalues --   -0.25178  -0.24720  -0.24659  -0.21242  -0.21101
 Alpha  occ. eigenvalues --   -0.19308  -0.18754
 Alpha virt. eigenvalues --   -0.12001  -0.11213  -0.05354  -0.04427  -0.03931
 Alpha virt. eigenvalues --   -0.03574  -0.02239  -0.01704  -0.01022  -0.00471
 Alpha virt. eigenvalues --    0.00577   0.00829   0.00932   0.01364   0.01521

 Mulliken charges:
               1
     1  Mg  12.000000
     2  C    6.000000
     3  C    6.000000
     4  C    6.000000
     5  C    6.000000
     6  N    7.000000
     7  C    6.000000
     8  C    6.000000
     9  C    6.000000
    10  C    6.000000
    11  C    6.000000
    12  C    6.000000
    13  C    6.000000
    14  H    1.000000
    15  N    7.000000
    16  C    6.000000
    17  C    6.000000
    18  C    6.000000
    19  C    6.000000
    20  C    6.000000
    21  C    6.000000
    22  O    8.000000
    23  C    6.000000
    24  N    7.000000
    25  C    6.000000
    26  C    6.000000
    27  C    6.000000
    28  C    6.000000
    29  C    6.000000
    30  C    6.000000
    31  C    6.000000
    32  N    7.000000
    33  C    6.000000
    34  C    6.000000
    35  C    6.000000
    36  C    6.000000
    37  C    6.000000
    38  C    6.000000
    39  O    8.000000
    40  C    6.000000
    41  C    6.000000
    42  O    8.000000
    43  O    8.000000
    44  C    6.000000
    45  H    1.000000
    46  H    1.000000
    47  H    1.000000
    48  H    1.000000
    49  H    1.000000
    50  H    1.000000
    51  H    1.000000
    52  H    1.000000
    53  H    1.000000
    54  H    1.000000
    55  H    1.000000
    56  H    1.000000
    57  H    1.000000
    58  H    1.000000
    59  H    1.000000
    60  H    1.000000
    61  H    1.000000
    62  H    1.000000
    63  H    1.000000
    64  H    1.000000
    65  H    1.000000
    66  H    1.000000
    67  H    1.000000
    68  H    1.000000
    69  H    1.000000
    70  H    1.000000
    71  H    1.000000
    72  H    1.000000
    73  H    1.000000
    74  H    1.000000
    75  H    1.000000
    76  H    1.000000
    77  H    1.000000
    78  H    1.000000
    79  H    1.000000
    80  Mg  12.000000
    81  C    6.000000
    82  C    6.000000
    83  C    6.000000
    84  C    6.000000
    85  N    7.000000
    86  C    6.000000
    87  C    6.000000
    88  C    6.000000
    89  C    6.000000
    90  C    6.000000
    91  C    6.000000
    92  C    6.000000
    93  H    1.000000
    94  N    7.000000
    95  C    6.000000
    96  C    6.000000
    97  C    6.000000
    98  C    6.000000
    99  C    6.000000
   100  C    6.000000
   101  O    8.000000
   102  C    6.000000
   103  N    7.000000
   104  C    6.000000
   105  C    6.000000
   106  C    6.000000
   107  C    6.000000
   108  C    6.000000
   109  C    6.000000
   110  C    6.000000
   111  N    7.000000
   112  C    6.000000
   113  C    6.000000
   114  C    6.000000
   115  C    6.000000
   116  C    6.000000
   117  C    6.000000
   118  O    8.000000
   119  C    6.000000
   120  C    6.000000
   121  O    8.000000
   122  O    8.000000
   123  C    6.000000
   124  H    1.000000
   125  H    1.000000
   126  H    1.000000
   127  H    1.000000
   128  H    1.000000
   129  H    1.000000
   130  H    1.000000
   131  H    1.000000
   132  H    1.000000
   133  H    1.000000
   134  H    1.000000
   135  H    1.000000
   136  H    1.000000
   137  H    1.000000
   138  H    1.000000
   139  H    1.000000
   140  H    1.000000
   141  H    1.000000
   142  H    1.000000
   143  H    1.000000
   144  H    1.000000
   145  H    1.000000
   146  H    1.000000
   147  H    1.000000
   148  H    1.000000
   149  H    1.000000
   150  H    1.000000
   151  H    1.000000
   152  H    1.000000
   153  H    1.000000
   154  H    1.000000
   155  H    1.000000
   156  H    1.000000
   157  H    1.000000
   158  H    1.000000
 Sum of Mulliken charges = 624.00000

 Dipole moment (field-independent basis, Debye):
    X=              0.0000    Y=             -0.0000    Z=              0.0000  Tot=              0.0000
 Quadrupole moment (field-independent basis, Debye-Ang):
   XX=              0.0000   YY=             -0.0000   ZZ=              0.0000
   XY=              0.0000   XZ=              0.0000   YZ=              0.0000

 Normal termination of Gaussian 16 at Fri Oct 15 03:53:36 2021.
