 Gaussian 16, Revision A.03,
 Gaussian 16:  ES64L-G16RevA.03 25-Dec-2016

 --------------------------------------------------------
 #p PBE1PBE/Def2SVP td=(nstates=5) density=(transition=1)
 --------------------------------------------------------

 --------------------------------
 TDDFT excited states in gaussian
 --------------------------------
 Symbolic Z-matrix:
 Charge =  0 Multiplicity = 1

                         Standard orientation:
 ---------------------------------------------------------------------
 Center     Atomic      Atomic             Coordinates (Angstroms)
 Number     Number       Type             X           Y           Z
 ---------------------------------------------------------------------
      1         12           0      -24.234303   -0.809268   -0.123138
      2          6           0      -25.764664    2.219204    0.638287
      3          6           0      -22.400459    0.779460   -2.543019
      4          6           0      -23.009787   -3.856017   -1.035339
      5          6           0      -26.421819   -2.280035    2.261174
      6          7           0      -24.122851    1.242905   -0.887674
      7          6           0      -24.762518    2.314540   -0.322689
      8          6           0      -24.259461    3.557637   -1.060681
      9          6           0      -23.446672    3.040134   -2.234068
     10          6           0      -23.281366    1.577647   -1.836854
     11          6           0      -23.954048    3.227700   -3.638659
     12          6           0      -23.502118    4.639920   -0.153301
     13          6           0      -22.795043    5.800937   -0.923842
     14          1           0      -23.590287    7.105362   -1.192410
     15          7           0      -22.786948   -1.400560   -1.487823
     16          6           0      -22.173967   -0.616192   -2.408999
     17          6           0      -21.329934   -1.481653   -3.191082
     18          6           0      -21.518823   -2.824338   -2.749804
     19          6           0      -22.477686   -2.757778   -1.740596
     20          6           0      -20.462011   -0.917943   -4.273542
     21          6           0      -20.906557   -4.101732   -3.394829
     22          8           0      -21.372593   -5.208853   -3.193185
     23          6           0      -19.826919   -4.072907   -4.368187
     24          7           0      -24.643546   -2.659730    0.501076
     25          6           0      -23.989271   -3.796006    0.026175
     26          6           0      -24.443786   -5.080048    0.741623
     27          6           0      -25.282071   -4.498393    1.930388
     28          6           0      -25.417761   -3.031593    1.556288
     29          6           0      -24.998562   -6.148515   -0.106614
     30          6           0      -24.774517   -4.738967    3.458341
     31          6           0      -25.661902   -5.472543    4.468421
     32          7           0      -25.872059   -0.183113    1.198877
     33          6           0      -26.637903   -0.911234    2.065570
     34          6           0      -27.576493   -0.083174    2.744934
     35          6           0      -27.219951    1.232968    2.260053
     36          6           0      -26.228252    1.084460    1.250279
     37          6           0      -28.536202   -0.569342    3.763101
     38          6           0      -27.477613    2.642388    2.446484
     39          8           0      -28.172893    3.280935    3.211959
     40          6           0      -26.499255    3.352885    1.338418
     41          6           0      -27.246011    4.318214    0.492075
     42          8           0      -28.105816    3.995380   -0.298016
     43          8           0      -26.852279    5.588588    0.689473
     44          6           0      -27.352178    6.628260   -0.289986
     45          1           0      -21.774670    1.289296   -3.278859
     46          1           0      -22.606484   -4.820021   -1.351806
     47          1           0      -26.978486   -2.908922    2.959345
     48          1           0      -25.211317    3.977380   -1.385790
     49          1           0      -22.484652    3.551415   -2.258307
     50          1           0      -24.254641    2.202124   -3.850781
     51          1           0      -23.198461    3.641071   -4.306882
     52          1           0      -24.877830    3.805602   -3.673575
     53          1           0      -22.762083    4.018899    0.351901
     54          1           0      -24.199243    5.074848    0.561939
     55          1           0      -22.481315    5.490445   -1.919683
     56          1           0      -21.889254    6.060411   -0.375843
     57          1           0      -20.423533    0.165180   -4.393699
     58          1           0      -20.892882   -1.276295   -5.207854
     59          1           0      -19.444675   -1.309234   -4.253321
     60          1           0      -19.877026   -3.394416   -5.219177
     61          1           0      -19.534489   -5.041716   -4.772938
     62          1           0      -18.971723   -3.813654   -3.744417
     63          1           0      -23.466874   -5.382912    1.119463
     64          1           0      -26.244096   -4.952831    1.694086
     65          1           0      -24.442394   -7.085343   -0.149761
     66          1           0      -25.071462   -5.754793   -1.120741
     67          1           0      -25.990128   -6.486159    0.194611
     68          1           0      -24.569984   -3.759204    3.889581
     69          1           0      -23.826977   -5.261105    3.596480
     70          1           0      -26.156397   -4.829813    5.197223
     71          1           0      -25.201577   -6.342799    4.935383
     72          1           0      -26.520265   -5.861585    3.920563
     73          1           0      -29.003711   -1.479911    3.389147
     74          1           0      -29.267124    0.187141    4.047471
     75          1           0      -27.951458   -0.982581    4.585564
     76          1           0      -25.786098    3.937424    1.918740
     77          1           0      -27.217828    7.551028    0.273965
     78          1           0      -28.396662    6.417343   -0.518593
     79          1           0      -26.674024    6.603387   -1.143100
     80         12           0       25.037332   -0.536259    0.087260
     81          6           0       23.735120    2.651997    0.903231
     82          6           0       25.400599    0.532359   -3.093204
     83          6           0       26.104878   -3.544958   -0.638262
     84          6           0       23.874645   -1.649193    3.293096
     85          7           0       24.519141    1.375366   -1.044582
     86          6           0       24.244441    2.575252   -0.410086
     87          6           0       24.434757    3.652510   -1.422562
     88          6           0       24.403970    2.930880   -2.770197
     89          6           0       24.824331    1.507187   -2.326916
     90          6           0       22.947411    2.918099   -3.368510
     91          6           0       25.761457    4.573786   -1.268595
     92          6           0       25.680255    6.117603   -1.473270
     93          1           0       24.964296    6.616808   -2.761547
     94          7           0       25.657942   -1.371075   -1.677669
     95          6           0       25.743712   -0.769077   -2.827155
     96          6           0       26.210269   -1.746213   -3.826066
     97          6           0       26.639705   -2.906836   -3.113827
     98          6           0       26.113546   -2.659426   -1.741386
     99          6           0       26.298683   -1.589061   -5.387761
    100          6           0       27.416004   -4.145151   -3.560816
    101          8           0       27.617720   -5.143241   -2.842982
    102          6           0       27.770705   -4.267608   -4.966394
    103          7           0       24.819035   -2.414328    1.173922
    104          6           0       25.481232   -3.528155    0.664348
    105          6           0       25.517290   -4.651078    1.771593
    106          6           0       24.928852   -3.941690    3.016617
    107          6           0       24.544834   -2.557857    2.487999
    108          6           0       24.850913   -5.952566    1.324777
    109          6           0       25.810128   -3.953519    4.290993
    110          6           0       25.105660   -4.159407    5.652276
    111          7           0       24.006443    0.270631    1.767893
    112          6           0       23.561575   -0.295451    2.958414
    113          6           0       23.059277    0.755889    3.805963
    114          6           0       23.056742    1.909284    3.020076
    115          6           0       23.656711    1.595574    1.769377
    116          6           0       22.672083    0.647142    5.150778
    117          6           0       22.769872    3.351165    2.993993
    118          8           0       22.339022    4.126305    3.832985
    119          6           0       23.233025    3.892687    1.602007
    120          6           0       22.032491    4.560926    0.955929
    121          8           0       21.097248    4.146385    0.309337
    122          8           0       22.293034    5.881096    1.184904
    123          6           0       21.520120    6.881160    0.410333
    124          1           0       25.606262    0.889955   -4.104663
    125          1           0       26.654778   -4.461416   -0.861960
    126          1           0       23.722226   -1.911662    4.341625
    127          1           0       23.660381    4.419269   -1.456375
    128          1           0       25.193728    3.262894   -3.443662
    129          1           0       22.916744    2.948918   -4.457120
    130          1           0       22.370626    3.808085   -3.115632
    131          1           0       22.522873    1.967326   -3.047993
    132          1           0       26.566794    4.146513   -1.865157
    133          1           0       26.177103    4.447923   -0.268157
    134          1           0       26.729206    6.384899   -1.606202
    135          1           0       25.206048    6.436058   -0.544899
    136          1           0       27.308004   -1.544377   -5.796250
    137          1           0       25.767840   -0.671498   -5.643050
    138          1           0       25.912635   -2.431279   -5.962049
    139          1           0       28.326438   -3.393071   -5.305721
    140          1           0       26.879508   -4.394560   -5.581139
    141          1           0       28.511154   -5.063961   -5.034968
    142          1           0       26.570214   -4.797317    2.013028
    143          1           0       23.937319   -4.331372    3.246259
    144          1           0       23.791433   -5.915914    1.580402
    145          1           0       25.208938   -6.844703    1.837608
    146          1           0       24.805469   -5.971210    0.236384
    147          1           0       26.479440   -3.097572    4.376062
    148          1           0       26.564461   -4.739490    4.234967
    149          1           0       24.991204   -3.149324    6.045906
    150          1           0       25.840775   -4.679616    6.267194
    151          1           0       24.152627   -4.668059    5.509622
    152          1           0       21.985982    1.375937    5.581727
    153          1           0       23.590540    0.586452    5.735454
    154          1           0       22.130546   -0.295809    5.216917
    155          1           0       24.055245    4.596434    1.730289
    156          1           0       22.260096    7.618804    0.101150
    157          1           0       20.738561    7.412087    0.953233
    158          1           0       21.098362    6.416480   -0.480512
 ---------------------------------------------------------------------

 SCF Done:  E(RPBE1PBE) =  -4067.37606288     A.U. after   16 cycles

 Excitation energies and oscillator strengths:

 Excited State   1:      Singlet-A      1.8570 eV  667.66 nm  f=0.3804  <S**2>=0.000
     309 -> 316       -0.17290
     311 -> 313        0.69305
     311 <- 313       -0.11172
 This state for optimization and/or second-order correction.
 Total Energy, E(TD-HF/TD-DFT) =  -4067.30781970
 Copying the excited state density for this state as the 1-particle RhoCI density.

 Excited State   2:      Singlet-A      1.8848 eV  657.79 nm  f=0.3790  <S**2>=0.000
     310 -> 315        0.17656
     312 -> 314        0.68857

 Excited State   3:      Singlet-A      1.9501 eV  635.78 nm  f=0.0000  <S**2>=0.000
     312 -> 313        0.70711

 Excited State   4:      Singlet-A      2.0816 eV  595.63 nm  f=0.0000  <S**2>=0.000
     311 -> 314        0.70711

 Excited State   5:      Singlet-A      2.2290 eV  556.23 nm  f=0.0888  <S**2>=0.000
     309 -> 313        0.64387
     311 -> 316        0.27281

 The electronic state is 1-A.
 Alpha  occ. eigenvalues --  -46.92768 -46.91250 -19.25085 -19.25048 -19.20280
 Alpha  occ. eigenvalues --  -19.19436 -19.19261 -19.18947 -19.18910 -19.18461
 Alpha  occ. eigenvalues --  -14.42203 -14.41530 -14.41330 -14.40947 -14.39454
 Alpha  occ. eigenvalues --  -14.38713 -14.38691 -14.38087 -10.36271 -10.34938
 Alpha  occ. eigenvalues --  -10.32676 -10.32586 -10.32019 -10.31795 -10.29472
 Alpha  occ. eigenvalues --  -10.29344 -10.29315 -10.28914 -10.28833 -10.28716
 Alpha  occ. eigenvalues --  -10.28595 -10.28415 -10.28135 -10.28076 -10.27730
 Alpha  occ. eigenvalues --  -10.27579 -10.27429 -10.27398 -10.27371 -10.27307
 Alpha  occ. eigenvalues --  -10.27115 -10.27097 -10.26724 -10.25976 -10.25961
 Alpha  occ. eigenvalues --  -10.25926 -10.25789 -10.25743 -10.25722 -10.25579
 Alpha  occ. eigenvalues --  -10.25401 -10.25382 -10.25365 -10.25318 -10.25312
 Alpha  occ. eigenvalues --  -10.25280 -10.25190 -10.25114 -10.25073 -10.25019
 Alpha  occ. eigenvalues --  -10.24998 -10.24900 -10.24898 -10.24751 -10.24707
 Alpha  occ. eigenvalues --  -10.24696 -10.24654 -10.24497 -10.24492 -10.24395
 Alpha  occ. eigenvalues --  -10.24339 -10.24240 -10.24052 -10.23802 -10.23679
 Alpha  occ. eigenvalues --  -10.23399 -10.23292 -10.23289 -10.23212 -10.23186
 Alpha  occ. eigenvalues --  -10.23112 -10.23024 -10.23015 -10.22937 -10.22726
 Alpha  occ. eigenvalues --  -10.22603  -3.14740  -3.13488  -1.87577  -1.87115
 Alpha  occ. eigenvalues --   -1.86953  -1.86346  -1.85865  -1.85713  -1.10917
 Alpha  occ. eigenvalues --   -1.10598  -1.05679  -1.04378  -1.04260  -1.04024
 Alpha  occ. eigenvalues --   -1.02629  -1.01536  -0.99842  -0.99810  -0.98785
 Alpha  occ. eigenvalues --   -0.98583  -0.97932  -0.97716  -0.96985  -0.96776
 Alpha  occ. eigenvalues --   -0.87175  -0.86787  -0.83465  -0.83205  -0.83009
 Alpha  occ. eigenvalues --   -0.82799  -0.82632  -0.82324  -0.81927  -0.81867
 Alpha  occ. eigenvalues --   -0.81360  -0.81240  -0.81193  -0.80981  -0.78889
 Alpha  occ. eigenvalues --   -0.78537  -0.77980  -0.77913  -0.76998  -0.76780
 Alpha  occ. eigenvalues --   -0.76695  -0.76604  -0.75868  -0.75699  -0.75083
 Alpha  occ. eigenvalues --   -0.75001  -0.73114  -0.72679  -0.72103  -0.71775
 Alpha  occ. eigenvalues --   -0.71558  -0.71370  -0.70194  -0.70191  -0.69508
 Alpha  occ. eigenvalues --   -0.69492  -0.67223  -0.67014  -0.66295  -0.66256
 Alpha  occ. eigenvalues --   -0.63665  -0.63255  -0.63248  -0.63139  -0.62707
 Alpha  occ. eigenvalues --   -0.62215  -0.61746  -0.61333  -0.60079  -0.59998
 Alpha  occ. eigenvalues --   -0.59898  -0.59865  -0.59461  -0.59098  -0.58926
 Alpha  occ. eigenvalues --   -0.58741  -0.56558  -0.55989  -0.55054  -0.55012
 Alpha  occ. eigenvalues --   -0.54271  -0.54158  -0.53851  -0.53577  -0.53432
 Alpha  occ. eigenvalues --   -0.52972  -0.52558  -0.52418  -0.52102  -0.51680
 Alpha  occ. eigenvalues --   -0.50959  -0.50773  -0.50463  -0.50313  -0.49757
 Alpha  occ. eigenvalues --   -0.49748  -0.49341  -0.49069  -0.49042  -0.48388
 Alpha  occ. eigenvalues --   -0.48301  -0.48152  -0.47833  -0.47775  -0.47653
 Alpha  occ. eigenvalues --   -0.47418  -0.47350  -0.47119  -0.47021  -0.46890
 Alpha  occ. eigenvalues --   -0.46720  -0.46697  -0.46281  -0.46159  -0.45907
 Alpha  occ. eigenvalues --   -0.45863  -0.45595  -0.45420  -0.45416  -0.45055
 Alpha  occ. eigenvalues --   -0.44987  -0.44795  -0.44634  -0.44545  -0.44171
 Alpha  occ. eigenvalues --   -0.44041  -0.43964  -0.43924  -0.43681  -0.43586
 Alpha  occ. eigenvalues --   -0.43583  -0.43455  -0.43207  -0.42889  -0.42844
 Alpha  occ. eigenvalues --   -0.42398  -0.42376  -0.42127  -0.42112  -0.41824
 Alpha  occ. eigenvalues --   -0.41792  -0.41571  -0.41483  -0.41386  -0.41331
 Alpha  occ. eigenvalues --   -0.41204  -0.41028  -0.40964  -0.40774  -0.40664
 Alpha  occ. eigenvalues --   -0.40343  -0.39893  -0.39816  -0.39790  -0.39673
 Alpha  occ. eigenvalues --   -0.39561  -0.39511  -0.39225  -0.39208  -0.39035
 Alpha  occ. eigenvalues --   -0.38855  -0.38823  -0.38666  -0.38511  -0.38399
 Alpha  occ. eigenvalues --   -0.38058  -0.37852  -0.37809  -0.37657  -0.37566
 Alpha  occ. eigenvalues --   -0.37532  -0.37202  -0.37032  -0.36757  -0.36702
 Alpha  occ. eigenvalues --   -0.36630  -0.36406  -0.36316  -0.36190  -0.36125
 Alpha  occ. eigenvalues --   -0.35800  -0.35782  -0.35447  -0.35278  -0.35122
 Alpha  occ. eigenvalues --   -0.35073  -0.34752  -0.34628  -0.34447  -0.34195
 Alpha  occ. eigenvalues --   -0.33741  -0.33727  -0.32715  -0.32695  -0.32418
 Alpha  occ. eigenvalues --   -0.32288  -0.31905  -0.31649  -0.31416  -0.31330
 Alpha  occ. eigenvalues --   -0.30978  -0.30976  -0.29615  -0.29471  -0.29239
 Alpha  occ. eigenvalues --   -0.29153  -0.28626  -0.27870  -0.26918  -0.26600
 Alpha  occ. eigenvalues --   -0.26509  -0.26046  -0.25939  -0.25381  -0.25331
 Alpha  occ. eigenvalues --   -0.25182  -0.24975  -0.24663  -0.21105  -0.20936
 Alpha  occ. eigenvalues --   -0.18757  -0.18651
 Alpha virt. eigenvalues --   -0.11216  -0.10840  -0.05585  -0.05357  -0.04286
 Alpha virt. eigenvalues --   -0.03578  -0.02175  -0.01707  -0.00910   0.00572
 Alpha virt. eigenvalues --    0.00823   0.01096   0.01243   0.01360   0.01532

 Mulliken charges:
               1
     1  Mg  12.002801
     2  C    6.016700
     3  C    5.985308
     4  C    5.985070
     5  C    6.009555
     6  N    7.005063
     7  C    5.967883
     8  C    6.006542
     9  C    5.993448
    10  C    6.027311
    11  C    5.998952
    12  C    6.004766
    13  C    5.998170
    14  H    1.001213
    15  N    6.996289
    16  C    6.034395
    17  C    6.027962
    18  C    6.008293
    19  C    6.031858
    20  C    5.995460
    21  C    6.011977
    22  O    8.020829
    23  C    5.993029
    24  N    6.996289
    25  C    6.040500
    26  C    5.991374
    27  C    6.013364
    28  C    5.964713
    29  C    5.997672
    30  C    6.002735
    31  C    6.000317
    32  N    7.002350
    33  C    5.969879
    34  C    5.969216
    35  C    5.997308
    36  C    5.970676
    37  C    6.000989
    38  C    5.983742
    39  O    7.970104
    40  C    5.997102
    41  C    5.996585
    42  O    7.995157
    43  O    7.998919
    44  C    6.000844
    45  H    1.008258
    46  H    1.008961
    47  H    0.989086
    48  H    1.000851
    49  H    0.999438
    50  H    0.995570
    51  H    1.000256
    52  H    1.011843
    53  H    0.993943
    54  H    1.005557
    55  H    0.993572
    56  H    0.997876
    57  H    1.019636
    58  H    1.021068
    59  H    1.019332
    60  H    1.004797
    61  H    1.013368
    62  H    1.007294
    63  H    0.999115
    64  H    0.998102
    65  H    1.001631
    66  H    0.996779
    67  H    1.012004
    68  H    1.002949
    69  H    0.988812
    70  H    1.004208
    71  H    0.994652
    72  H    0.998150
    73  H    0.982114
    74  H    0.986845
    75  H    0.979776
    76  H    0.992984
    77  H    0.996606
    78  H    0.998259
    79  H    0.993602
    80  Mg  12.000017
    81  C    5.999884
    82  C    6.000061
    83  C    6.000112
    84  C    5.999979
    85  N    6.999963
    86  C    6.000126
    87  C    5.999975
    88  C    6.000023
    89  C    5.999918
    90  C    5.999992
    91  C    5.999991
    92  C    6.000002
    93  H    0.999994
    94  N    7.000040
    95  C    5.999893
    96  C    5.999923
    97  C    6.000023
    98  C    5.999859
    99  C    6.000003
   100  C    5.999969
   101  O    7.999960
   102  C    6.000004
   103  N    7.000035
   104  C    5.999819
   105  C    6.000024
   106  C    5.999978
   107  C    6.000049
   108  C    6.000015
   109  C    5.999984
   110  C    5.999996
   111  N    6.999958
   112  C    6.000060
   113  C    6.000089
   114  C    6.000025
   115  C    6.000089
   116  C    5.999997
   117  C    6.000037
   118  O    8.000076
   119  C    6.000015
   120  C    6.000000
   121  O    7.999988
   122  O    8.000013
   123  C    5.999998
   124  H    0.999985
   125  H    0.999986
   126  H    1.000017
   127  H    0.999998
   128  H    1.000019
   129  H    0.999987
   130  H    0.999970
   131  H    0.999974
   132  H    1.000037
   133  H    1.000014
   134  H    1.000035
   135  H    0.999998
   136  H    0.999981
   137  H    0.999948
   138  H    0.999943
   139  H    1.000003
   140  H    0.999956
   141  H    0.999985
   142  H    1.000025
   143  H    0.999978
   144  H    0.999954
   145  H    1.000002
   146  H    0.999995
   147  H    1.000023
   148  H    1.000038
   149  H    1.000001
   150  H    1.000034
   151  H    0.999981
   152  H    1.000028
   153  H    1.000073
   154  H    1.000011
   155  H    1.000046
   156  H    1.000033
   157  H    1.000007
   158  H    0.999981
 Sum of Mulliken charges = 624.00000

 Dipole moment (field-independent basis, Debye):
    X=              6.9911    Y=             -3.5647    Z=             -6.8157  Tot=             10.3940
 Quadrupole moment (field-independent basis, Debye-Ang):
   XX=           -341.7458   YY=              2.7436   ZZ=              3.1669
   XY=             82.5091   XZ=            165.2047   YZ=              7.3301

 Normal termination of Gaussian 16 at Fri Oct 15 05:01:57 2021.
