 Gaussian 16, Revision A.03,
 Gaussian 16:  ES64L-G16RevA.03 25-Dec-2016

 --------------------------------------------------------
 #p PBE1PBE/Def2SVP td=(nstates=5) density=(transition=1)
 --------------------------------------------------------

 --------------------------------
 TDDFT excited states in gaussian
 --------------------------------
 Symbolic Z-matrix:
 Charge =  0 Multiplicity = 1

                         Standard orientation:
 ---------------------------------------------------------------------
 Center     Atomic      Atomic             Coordinates (Angstroms)
 Number     Number       Type             X           Y           Z
 ---------------------------------------------------------------------
      1         12           0      -26.534854    0.430064   -0.532838
      2          6           0      -25.078208   -1.899436    1.602768
      3          6           0      -27.039595    2.518562    2.062319
      4          6           0      -28.328016    2.414171   -2.600052
      5          6           0      -26.425473   -1.950438   -3.025033
      6          7           0      -26.098489    0.275621    1.634439
      7          6           0      -25.312939   -0.677186    2.231620
      8          6           0      -25.060765   -0.324345    3.648173
      9          6           0      -25.706837    1.047033    3.876823
     10          6           0      -26.329350    1.367048    2.449935
     11          6           0      -26.679371    1.219573    5.033248
     12          6           0      -23.467640   -0.377598    4.002033
     13          6           0      -23.002979   -1.391490    5.073655
     14          1           0      -21.939551   -1.022577    6.078604
     15          7           0      -27.437206    2.266819   -0.337065
     16          6           0      -27.561461    2.988017    0.840933
     17          6           0      -28.307946    4.168700    0.598883
     18          6           0      -28.706530    4.165930   -0.765347
     19          6           0      -28.138045    2.924367   -1.300114
     20          6           0      -28.429754    5.229193    1.762051
     21          6           0      -29.599615    5.215033   -1.425387
     22          8           0      -30.012469    5.173770   -2.594259
     23          6           0      -29.962189    6.426610   -0.685017
     24          7           0      -27.515428    0.208977   -2.469163
     25          6           0      -28.084936    1.181747   -3.150209
     26          6           0      -28.611500    0.670959   -4.510338
     27          6           0      -27.554122   -0.483155   -4.721999
     28          6           0      -27.093754   -0.765975   -3.295490
     29          6           0      -30.075986    0.111544   -4.646741
     30          6           0      -26.317920   -0.168515   -5.693716
     31          6           0      -25.429155    0.954968   -5.347376
     32          7           0      -25.925954   -1.617217   -0.763906
     33          6           0      -25.930189   -2.476173   -1.880406
     34          6           0      -25.379340   -3.739845   -1.506947
     35          6           0      -25.091413   -3.607685   -0.163124
     36          6           0      -25.346935   -2.249593    0.217533
     37          6           0      -25.412157   -4.959525   -2.290524
     38          6           0      -24.433148   -4.218066    0.894015
     39          8           0      -23.933693   -5.341661    1.012831
     40          6           0      -24.461631   -3.211610    2.133047
     41          6           0      -25.397667   -3.825866    3.120764
     42          8           0      -26.569139   -4.131342    3.042810
     43          8           0      -24.657523   -4.037973    4.210379
     44          6           0      -25.374088   -4.630562    5.386927
     45          1           0      -26.942044    3.188685    2.918953
     46          1           0      -28.774484    3.153624   -3.267078
     47          1           0      -26.337899   -2.669829   -3.841637
     48          1           0      -25.578142   -1.093065    4.220843
     49          1           0      -24.920115    1.787588    4.019155
     50          1           0      -27.583889    1.040223    4.453253
     51          1           0      -26.623546    2.171662    5.561290
     52          1           0      -26.675864    0.503213    5.854330
     53          1           0      -23.140189    0.622637    4.284046
     54          1           0      -22.845291   -0.704746    3.168733
     55          1           0      -22.539790   -2.212734    4.525975
     56          1           0      -23.842649   -1.856339    5.588634
     57          1           0      -29.484151    5.467456    1.900691
     58          1           0      -27.944586    6.051447    1.235972
     59          1           0      -28.100494    4.943536    2.761145
     60          1           0      -30.470526    6.179236    0.245886
     61          1           0      -30.792165    6.866757   -1.237241
     62          1           0      -29.162729    7.158917   -0.569476
     63          1           0      -28.331767    1.394831   -5.275882
     64          1           0      -28.137846   -1.279826   -5.182558
     65          1           0      -30.428960   -0.498604   -3.816207
     66          1           0      -30.022012   -0.448971   -5.580714
     67          1           0      -30.792252    0.927201   -4.749054
     68          1           0      -26.620576    0.062596   -6.715327
     69          1           0      -25.561574   -0.951091   -5.634267
     70          1           0      -24.766501    0.521641   -4.599543
     71          1           0      -25.854754    1.854488   -4.901553
     72          1           0      -24.770151    1.353107   -6.118234
     73          1           0      -26.411248   -5.355032   -2.103669
     74          1           0      -24.674883   -5.713520   -2.016320
     75          1           0      -25.181287   -4.804128   -3.344968
     76          1           0      -23.471597   -2.981803    2.527047
     77          1           0      -25.480355   -3.798193    6.082967
     78          1           0      -24.795639   -5.462488    5.788031
     79          1           0      -26.387629   -4.998098    5.224001
     80         12           0       26.751904   -0.671093    0.386272
     81          6           0       25.656683    2.629339    0.966107
     82          6           0       23.560733   -1.433323   -0.531655
     83          6           0       27.947746   -3.609251   -0.885988
     84          6           0       30.054699    0.566143    0.896965
     85          7           0       24.826277    0.533470    0.098513
     86          6           0       24.539849    1.798567    0.525057
     87          6           0       23.104764    2.223177    0.168516
     88          6           0       22.479490    0.746303    0.066554
     89          6           0       23.700461   -0.116716   -0.133501
     90          6           0       21.651922    0.278827    1.293798
     91          6           0       22.968217    3.005733   -1.214357
     92          6           0       21.776326    3.926988   -1.423624
     93          1           0       20.647203    3.596492   -2.422813
     94          7           0       25.911308   -2.398805   -0.579130
     95          6           0       24.560173   -2.530651   -0.717947
     96          6           0       24.219509   -3.825551   -1.112537
     97          6           0       25.479153   -4.528573   -1.208638
     98          6           0       26.546412   -3.528589   -0.922386
     99          6           0       22.798698   -4.326640   -1.341912
    100          6           0       25.567129   -5.993623   -1.571900
    101          8           0       24.512425   -6.642613   -1.793539
    102          6           0       26.908364   -6.808253   -1.585740
    103          7           0       28.696621   -1.347930    0.087050
    104          6           0       28.936958   -2.647707   -0.435091
    105          6           0       30.373586   -3.031526   -0.213553
    106          6           0       31.099782   -1.687021    0.008276
    107          6           0       29.920085   -0.765073    0.433923
    108          6           0       30.750128   -3.953752    0.968015
    109          6           0       31.781220   -1.124516   -1.347938
    110          6           0       33.163079   -1.632326   -1.731132
    111          7           0       27.636388    1.185992    1.021479
    112          6           0       28.970155    1.526441    1.189943
    113          6           0       29.119534    2.861238    1.516090
    114          6           0       27.806357    3.361733    1.499334
    115          6           0       26.947029    2.300722    1.167540
    116          6           0       30.421950    3.539276    1.803265
    117          6           0       27.041367    4.460100    1.776472
    118          8           0       27.353397    5.530899    2.258989
    119          6           0       25.658348    4.099279    1.194675
    120          6           0       25.529832    4.938317   -0.041562
    121          8           0       26.296452    4.906025   -0.953332
    122          8           0       24.439608    5.802648    0.073261
    123          6           0       24.374553    6.734341   -0.998508
    124          1           0       22.528341   -1.775006   -0.633416
    125          1           0       28.368896   -4.596973   -1.086991
    126          1           0       31.076734    0.833211    1.172874
    127          1           0       22.590174    2.696116    1.004286
    128          1           0       21.787772    0.764896   -0.775177
    129          1           0       20.627831    0.469537    0.971684
    130          1           0       21.850698    0.880757    2.180436
    131          1           0       21.774765   -0.788590    1.477917
    132          1           0       22.887706    2.301488   -2.042455
    133          1           0       23.916624    3.520304   -1.370291
    134          1           0       22.228930    4.877083   -1.711156
    135          1           0       21.317899    4.084503   -0.447470
    136          1           0       22.536098   -5.349752   -1.070788
    137          1           0       22.729307   -4.099233   -2.405410
    138          1           0       22.103171   -3.770246   -0.713569
    139          1           0       27.331676   -6.825888   -0.581815
    140          1           0       27.502739   -6.259311   -2.315875
    141          1           0       26.859771   -7.807236   -2.018863
    142          1           0       30.725212   -3.451105   -1.155551
    143          1           0       31.865611   -1.752751    0.781205
    144          1           0       31.338824   -3.482185    1.754689
    145          1           0       30.961346   -4.967854    0.628138
    146          1           0       29.800593   -4.120301    1.476434
    147          1           0       31.801494   -0.059980   -1.115461
    148          1           0       31.132549   -1.295698   -2.207230
    149          1           0       33.137251   -1.996434   -2.757841
    150          1           0       33.442367   -2.449591   -1.065589
    151          1           0       33.901019   -0.829942   -1.711208
    152          1           0       30.427929    4.442990    1.194557
    153          1           0       31.282171    2.954100    1.475823
    154          1           0       30.527182    3.830848    2.848402
    155          1           0       24.902077    4.381599    1.926292
    156          1           0       24.898317    7.648458   -0.720270
    157          1           0       23.370472    7.120356   -1.178405
    158          1           0       24.812873    6.344430   -1.915587
 ---------------------------------------------------------------------

 SCF Done:  E(RPBE1PBE) =  -4067.33093305     A.U. after   16 cycles

 Excitation energies and oscillator strengths:

 Excited State   1:      Singlet-A      1.8587 eV  667.06 nm  f=0.3084  <S**2>=0.000
     310 -> 316        0.16349
     312 -> 314        0.69091
     312 <- 314       -0.10739
 This state for optimization and/or second-order correction.
 Total Energy, E(TD-HF/TD-DFT) =  -4067.26262792
 Copying the excited state density for this state as the 1-particle RhoCI density.

 Excited State   2:      Singlet-A      1.8621 eV  665.84 nm  f=0.4260  <S**2>=0.000
     309 -> 315       -0.18145
     311 -> 313        0.68708
     311 <- 313       -0.10527

 Excited State   3:      Singlet-A      1.8638 eV  665.24 nm  f=0.0000  <S**2>=0.000
     312 -> 313        0.70711

 Excited State   4:      Singlet-A      2.1541 eV  575.57 nm  f=0.1183  <S**2>=0.000
     309 -> 313        0.65690
     311 -> 315        0.24319

 Excited State   5:      Singlet-A      2.1588 eV  574.31 nm  f=0.0000  <S**2>=0.000
     311 -> 314        0.70711

 The electronic state is 1-A.
 Alpha  occ. eigenvalues --  -46.93700 -46.92746 -19.26019 -19.25698 -19.21087
 Alpha  occ. eigenvalues --  -19.19316 -19.18917 -19.18484 -19.18363 -19.18165
 Alpha  occ. eigenvalues --  -14.42507 -14.42343 -14.41650 -14.41235 -14.39448
 Alpha  occ. eigenvalues --  -14.39396 -14.38840 -14.38626 -10.36686 -10.35619
 Alpha  occ. eigenvalues --  -10.32234 -10.32225 -10.31291 -10.30465 -10.30116
 Alpha  occ. eigenvalues --  -10.30104 -10.29458 -10.29225 -10.28945 -10.28925
 Alpha  occ. eigenvalues --  -10.28543 -10.28381 -10.28364 -10.28206 -10.28026
 Alpha  occ. eigenvalues --  -10.27926 -10.27847 -10.27693 -10.27528 -10.27055
 Alpha  occ. eigenvalues --  -10.26810 -10.26638 -10.26591 -10.26448 -10.26385
 Alpha  occ. eigenvalues --  -10.26366 -10.26221 -10.25973 -10.25844 -10.25836
 Alpha  occ. eigenvalues --  -10.25825 -10.25821 -10.25703 -10.25690 -10.25668
 Alpha  occ. eigenvalues --  -10.25639 -10.25613 -10.25552 -10.25503 -10.25466
 Alpha  occ. eigenvalues --  -10.25354 -10.25277 -10.25258 -10.25219 -10.25145
 Alpha  occ. eigenvalues --  -10.25034 -10.25019 -10.24933 -10.24923 -10.24178
 Alpha  occ. eigenvalues --  -10.24062 -10.24024 -10.23996 -10.23993 -10.23978
 Alpha  occ. eigenvalues --  -10.23760 -10.23668 -10.23559 -10.23415 -10.23388
 Alpha  occ. eigenvalues --  -10.23288 -10.23109 -10.22898 -10.22353 -10.22134
 Alpha  occ. eigenvalues --  -10.21880  -3.15579  -3.14739  -1.88417  -1.87945
 Alpha  occ. eigenvalues --   -1.87797  -1.87582  -1.87091  -1.86978  -1.12365
 Alpha  occ. eigenvalues --   -1.11792  -1.04830  -1.04297  -1.03869  -1.03310
 Alpha  occ. eigenvalues --   -1.02184  -1.02062  -1.00338  -1.00047  -0.99350
 Alpha  occ. eigenvalues --   -0.98941  -0.98603  -0.98072  -0.97330  -0.96529
 Alpha  occ. eigenvalues --   -0.88724  -0.86571  -0.83533  -0.83228  -0.83054
 Alpha  occ. eigenvalues --   -0.83030  -0.82991  -0.82707  -0.82281  -0.81958
 Alpha  occ. eigenvalues --   -0.81934  -0.81427  -0.81174  -0.80222  -0.78958
 Alpha  occ. eigenvalues --   -0.78656  -0.78553  -0.77923  -0.77381  -0.77175
 Alpha  occ. eigenvalues --   -0.76259  -0.76159  -0.75851  -0.75098  -0.75015
 Alpha  occ. eigenvalues --   -0.74589  -0.73096  -0.72400  -0.71990  -0.71724
 Alpha  occ. eigenvalues --   -0.71706  -0.71222  -0.70313  -0.70281  -0.70051
 Alpha  occ. eigenvalues --   -0.69710  -0.68074  -0.67937  -0.66698  -0.66157
 Alpha  occ. eigenvalues --   -0.63919  -0.63792  -0.63489  -0.62919  -0.62797
 Alpha  occ. eigenvalues --   -0.62181  -0.61648  -0.61590  -0.60687  -0.60287
 Alpha  occ. eigenvalues --   -0.59928  -0.59800  -0.59343  -0.59289  -0.58775
 Alpha  occ. eigenvalues --   -0.58503  -0.57359  -0.56634  -0.55028  -0.55025
 Alpha  occ. eigenvalues --   -0.54726  -0.54503  -0.54145  -0.53896  -0.53781
 Alpha  occ. eigenvalues --   -0.53558  -0.53273  -0.52838  -0.52717  -0.52391
 Alpha  occ. eigenvalues --   -0.51131  -0.51053  -0.50268  -0.50193  -0.50113
 Alpha  occ. eigenvalues --   -0.49861  -0.49665  -0.49636  -0.49364  -0.49207
 Alpha  occ. eigenvalues --   -0.48450  -0.48163  -0.47918  -0.47830  -0.47813
 Alpha  occ. eigenvalues --   -0.47463  -0.47341  -0.47297  -0.47228  -0.46748
 Alpha  occ. eigenvalues --   -0.46688  -0.46504  -0.46430  -0.46057  -0.45865
 Alpha  occ. eigenvalues --   -0.45788  -0.45700  -0.45480  -0.45154  -0.45003
 Alpha  occ. eigenvalues --   -0.44720  -0.44481  -0.44433  -0.44344  -0.44334
 Alpha  occ. eigenvalues --   -0.44137  -0.43990  -0.43846  -0.43641  -0.43611
 Alpha  occ. eigenvalues --   -0.43550  -0.43169  -0.43101  -0.42991  -0.42736
 Alpha  occ. eigenvalues --   -0.42653  -0.42024  -0.41993  -0.41892  -0.41787
 Alpha  occ. eigenvalues --   -0.41705  -0.41546  -0.41412  -0.41284  -0.41132
 Alpha  occ. eigenvalues --   -0.41089  -0.40992  -0.40794  -0.40767  -0.40547
 Alpha  occ. eigenvalues --   -0.40541  -0.40091  -0.40064  -0.39847  -0.39504
 Alpha  occ. eigenvalues --   -0.39422  -0.39412  -0.39150  -0.39020  -0.38867
 Alpha  occ. eigenvalues --   -0.38661  -0.38631  -0.38549  -0.38194  -0.38165
 Alpha  occ. eigenvalues --   -0.38059  -0.38006  -0.37784  -0.37774  -0.37419
 Alpha  occ. eigenvalues --   -0.37312  -0.37299  -0.37089  -0.37040  -0.36963
 Alpha  occ. eigenvalues --   -0.36730  -0.36446  -0.36405  -0.36207  -0.36009
 Alpha  occ. eigenvalues --   -0.35965  -0.35842  -0.35809  -0.35594  -0.35387
 Alpha  occ. eigenvalues --   -0.35219  -0.35111  -0.34389  -0.34363  -0.33894
 Alpha  occ. eigenvalues --   -0.33490  -0.33071  -0.33059  -0.32828  -0.32701
 Alpha  occ. eigenvalues --   -0.32634  -0.32084  -0.32053  -0.31914  -0.31609
 Alpha  occ. eigenvalues --   -0.31386  -0.31190  -0.30391  -0.30256  -0.29694
 Alpha  occ. eigenvalues --   -0.29213  -0.29017  -0.28997  -0.27122  -0.27087
 Alpha  occ. eigenvalues --   -0.26188  -0.25809  -0.25742  -0.25702  -0.25343
 Alpha  occ. eigenvalues --   -0.25251  -0.25238  -0.24624  -0.21312  -0.20983
 Alpha  occ. eigenvalues --   -0.19633  -0.19090
 Alpha virt. eigenvalues --   -0.11993  -0.11451  -0.05985  -0.05177  -0.04277
 Alpha virt. eigenvalues --   -0.03932  -0.02140  -0.01863  -0.01398  -0.00616
 Alpha virt. eigenvalues --    0.00102   0.00749   0.01020   0.01246   0.01913

 Mulliken charges:
               1
     1  Mg  11.996912
     2  C    5.970172
     3  C    5.997030
     4  C    6.029788
     5  C    6.017199
     6  N    6.979425
     7  C    6.031832
     8  C    5.989602
     9  C    6.004401
    10  C    5.978063
    11  C    6.002310
    12  C    5.998421
    13  C    5.999876
    14  H    1.002762
    15  N    7.006285
    16  C    5.967406
    17  C    5.981612
    18  C    5.986911
    19  C    5.966255
    20  C    5.999455
    21  C    5.988275
    22  O    7.972037
    23  C    6.007697
    24  N    7.022851
    25  C    5.962733
    26  C    6.008928
    27  C    5.991099
    28  C    6.018873
    29  C    5.998881
    30  C    5.991133
    31  C    6.000938
    32  N    6.996133
    33  C    6.025644
    34  C    6.029089
    35  C    6.004746
    36  C    6.027660
    37  C    5.997211
    38  C    6.011868
    39  O    8.033067
    40  C    6.001536
    41  C    6.003986
    42  O    8.002211
    43  O    8.001140
    44  C    5.998290
    45  H    0.985557
    46  H    0.999462
    47  H    1.014903
    48  H    0.998540
    49  H    0.996906
    50  H    1.000564
    51  H    0.998321
    52  H    0.987082
    53  H    1.006278
    54  H    0.995098
    55  H    0.994334
    56  H    1.000020
    57  H    0.983884
    58  H    0.986000
    59  H    0.986645
    60  H    0.995244
    61  H    0.987136
    62  H    0.991750
    63  H    1.002202
    64  H    1.005023
    65  H    0.996661
    66  H    0.994020
    67  H    1.006298
    68  H    1.010253
    69  H    0.996902
    70  H    0.994007
    71  H    1.015148
    72  H    1.004658
    73  H    1.019117
    74  H    1.014963
    75  H    1.014967
    76  H    1.006782
    77  H    1.006350
    78  H    1.001387
    79  H    1.001796
    80  Mg  12.000001
    81  C    6.000150
    82  C    6.001735
    83  C    6.000368
    84  C    5.998184
    85  N    7.000639
    86  C    6.001983
    87  C    5.999280
    88  C    6.000727
    89  C    5.997589
    90  C    6.000230
    91  C    5.999891
    92  C    5.999875
    93  H    1.000765
    94  N    7.000355
    95  C    5.997234
    96  C    5.998862
    97  C    5.999109
    98  C    5.997699
    99  C    5.999992
   100  C    5.999311
   101  O    7.998322
   102  C    6.000048
   103  N    6.999071
   104  C    5.998123
   105  C    6.000719
   106  C    5.999555
   107  C    6.002603
   108  C    5.999828
   109  C    5.999905
   110  C    6.000031
   111  N    7.000172
   112  C    6.002336
   113  C    6.001498
   114  C    6.000541
   115  C    6.001268
   116  C    5.999859
   117  C    6.001145
   118  O    8.002273
   119  C    5.999596
   120  C    6.000388
   121  O    8.000262
   122  O    8.000195
   123  C    5.999766
   124  H    0.999696
   125  H    0.999259
   126  H    1.000315
   127  H    1.000094
   128  H    0.999906
   129  H    0.999737
   130  H    0.999270
   131  H    1.000459
   132  H    1.000748
   133  H    0.999613
   134  H    0.999898
   135  H    1.000099
   136  H    0.999093
   137  H    0.998928
   138  H    0.998762
   139  H    0.999380
   140  H    0.999490
   141  H    0.999097
   142  H    0.999900
   143  H    0.999977
   144  H    0.999140
   145  H    0.999930
   146  H    1.000148
   147  H    0.999519
   148  H    1.000631
   149  H    1.000264
   150  H    1.000269
   151  H    0.999853
   152  H    1.000935
   153  H    1.001222
   154  H    1.001139
   155  H    1.000761
   156  H    1.000214
   157  H    1.000469
   158  H    1.000304
 Sum of Mulliken charges = 624.00000

 Dipole moment (field-independent basis, Debye):
    X=              3.5798    Y=             -8.2705    Z=             -2.5085  Tot=              9.3546
 Quadrupole moment (field-independent basis, Debye-Ang):
   XX=           -172.0848   YY=             -4.0426   ZZ=              4.0030
   XY=            258.2738   XZ=             76.0253   YZ=              2.0554

 Normal termination of Gaussian 16 at Thu Oct 14 03:42:11 2021.
