 Gaussian 16, Revision A.03,
 Gaussian 16:  ES64L-G16RevA.03 25-Dec-2016

 --------------------------------------------------------
 #p PBE1PBE/Def2SVP td=(nstates=5) density=(transition=1)
 --------------------------------------------------------

 --------------------------------
 TDDFT excited states in gaussian
 --------------------------------
 Symbolic Z-matrix:
 Charge =  0 Multiplicity = 1

                         Standard orientation:
 ---------------------------------------------------------------------
 Center     Atomic      Atomic             Coordinates (Angstroms)
 Number     Number       Type             X           Y           Z
 ---------------------------------------------------------------------
      1         12           0        8.953123    0.370654   -0.082268
      2          6           0        6.989742   -2.430418    1.040825
      3          6           0       10.704240   -1.839966   -2.005961
      4          6           0       10.966119    2.930312   -0.886918
      5          6           0        7.395850    2.277056    2.261168
      6          7           0        8.794649   -1.969891   -0.475195
      7          6           0        7.880116   -2.812234    0.087407
      8          6           0        8.014682   -4.121099   -0.593844
      9          6           0        9.288838   -3.996152   -1.474347
     10          6           0        9.718922   -2.511570   -1.320987
     11          6           0       10.424920   -4.954141   -0.993691
     12          6           0        6.806289   -4.589563   -1.365260
     13          6           0        6.770010   -6.014550   -1.893499
     14          1           0        5.557932   -6.797825   -1.608409
     15          7           0       10.513140    0.541880   -1.348506
     16          6           0       11.176912   -0.533814   -2.000483
     17          6           0       12.197831    0.073069   -2.875145
     18          6           0       12.306766    1.400842   -2.470110
     19          6           0       11.260482    1.664497   -1.465655
     20          6           0       13.016279   -0.771223   -3.829509
     21          6           0       13.247815    2.512639   -2.982222
     22          8           0       13.421841    3.601414   -2.403425
     23          6           0       13.950741    2.257039   -4.252619
     24          7           0        9.219849    2.347930    0.630859
     25          6           0       10.073627    3.240461    0.173081
     26          6           0        9.992906    4.606493    0.908273
     27          6           0        8.699189    4.422715    1.704654
     28          6           0        8.393600    2.957918    1.490867
     29          6           0       11.242781    4.843840    1.821426
     30          6           0        7.534464    5.311915    1.331667
     31          6           0        6.726978    5.915674    2.494447
     32          7           0        7.445323    0.023920    1.274930
     33          6           0        6.911100    0.931282    2.163505
     34          6           0        5.791629    0.328802    2.948401
     35          6           0        5.872790   -0.973858    2.499216
     36          6           0        6.888818   -1.141719    1.550636
     37          6           0        4.794619    1.012196    3.828141
     38          6           0        5.250284   -2.277274    2.678282
     39          8           0        4.291751   -2.556876    3.389438
     40          6           0        5.939013   -3.294730    1.740047
     41          6           0        6.293020   -4.428613    2.555224
     42          8           0        7.247940   -4.506560    3.365271
     43          8           0        5.539535   -5.509668    2.211646
     44          6           0        5.921530   -6.810882    2.715256
     45          1           0       11.217485   -2.518135   -2.690509
     46          1           0       11.714277    3.714365   -1.019833
     47          1           0        7.132414    2.895244    3.121702
     48          1           0        8.208614   -4.801987    0.233904
     49          1           0        9.095562   -4.230674   -2.521269
     50          1           0       10.955800   -5.638185   -1.656525
     51          1           0        9.943091   -5.576251   -0.239588
     52          1           0       11.203067   -4.483126   -0.392482
     53          1           0        6.679319   -4.017545   -2.284531
     54          1           0        5.875245   -4.278134   -0.892499
     55          1           0        7.592541   -6.598122   -1.482714
     56          1           0        6.674281   -5.914296   -2.974338
     57          1           0       14.086282   -0.565983   -3.804272
     58          1           0       12.700049   -0.697633   -4.869835
     59          1           0       13.007946   -1.840853   -3.618486
     60          1           0       13.216558    1.942903   -4.994640
     61          1           0       14.608403    1.429509   -3.988869
     62          1           0       14.341343    3.218265   -4.584613
     63          1           0        9.898890    5.363110    0.128554
     64          1           0        8.783055    4.526363    2.786093
     65          1           0       10.976904    4.826357    2.877944
     66          1           0       11.676332    5.829248    1.650737
     67          1           0       11.921638    4.020802    1.597607
     68          1           0        6.836720    4.806580    0.664674
     69          1           0        7.954361    5.995501    0.594478
     70          1           0        6.306506    6.852015    2.128902
     71          1           0        7.296196    5.981042    3.422224
     72          1           0        5.973033    5.143385    2.645421
     73          1           0        3.829103    1.192961    3.355328
     74          1           0        5.317496    1.878826    4.231676
     75          1           0        4.692761    0.448458    4.756294
     76          1           0        5.131459   -3.668099    1.110387
     77          1           0        6.870107   -6.830185    3.252507
     78          1           0        5.883782   -7.556371    1.921420
     79          1           0        5.195887   -7.201586    3.429105
     80         12           0       -8.279796    0.985670   -0.370538
     81          6           0      -10.558287   -1.586389   -0.545463
     82          6           0       -5.726740   -1.410148   -0.393873
     83          6           0       -5.980102    3.442387   -0.105327
     84          6           0      -10.801682    3.222033    0.024464
     85          7           0       -8.199900   -1.287289   -0.193821
     86          6           0       -9.289421   -2.100680   -0.529379
     87          6           0       -8.854795   -3.540494   -0.867385
     88          6           0       -7.296474   -3.422994   -0.687162
     89          6           0       -6.999428   -1.957155   -0.454642
     90          6           0       -6.755622   -4.306804    0.429665
     91          6           0       -9.246051   -4.162504   -2.254499
     92          6           0      -10.299345   -5.398652   -2.240677
     93          1           0       -9.687325   -6.656066   -2.865848
     94          7           0       -6.200337    1.025202   -0.162633
     95          6           0       -5.329063   -0.063313   -0.329842
     96          6           0       -3.937263    0.381397   -0.456753
     97          6           0       -3.937544    1.870517   -0.292533
     98          6           0       -5.414721    2.213504   -0.240089
     99          6           0       -2.780003   -0.570823   -0.663127
    100          6           0       -2.849133    2.835946   -0.243523
    101          8           0       -3.093524    4.026464    0.001865
    102          6           0       -1.390247    2.449478   -0.412658
    103          7           0       -8.410924    2.953700   -0.007566
    104          6           0       -7.324268    3.845825   -0.066580
    105          6           0       -7.714547    5.378599   -0.030073
    106          6           0       -9.320942    5.228857    0.044756
    107          6           0       -9.520385    3.696989   -0.000519
    108          6           0       -7.088722    6.198340    1.203464
    109          6           0      -10.029122    5.981306   -1.133874
    110          6           0      -11.319978    6.681323   -0.844686
    111          7           0      -10.310009    0.818021   -0.174385
    112          6           0      -11.242006    1.854522   -0.069612
    113          6           0      -12.570153    1.358849   -0.193493
    114          6           0      -12.337669   -0.035566   -0.487689
    115          6           0      -10.962744   -0.279446   -0.378751
    116          6           0      -13.869664    2.048154   -0.181506
    117          6           0      -13.002147   -1.287162   -0.675493
    118          8           0      -14.179234   -1.642281   -0.801821
    119          6           0      -11.843351   -2.379619   -0.572027
    120          6           0      -12.097963   -3.235217    0.617110
    121          8           0      -11.612932   -3.172132    1.677709
    122          8           0      -12.956773   -4.279661    0.282715
    123          6           0      -12.834424   -5.462493    1.109199
    124          1           0       -4.936069   -2.157074   -0.491125
    125          1           0       -5.343073    4.328929   -0.081630
    126          1           0      -11.614045    3.951307   -0.000099
    127          1           0       -9.231037   -4.206680   -0.091770
    128          1           0       -6.759843   -3.797184   -1.559448
    129          1           0       -6.365352   -3.668737    1.222096
    130          1           0       -5.940129   -4.836553   -0.061233
    131          1           0       -7.440892   -5.063530    0.811010
    132          1           0       -8.328942   -4.499045   -2.738624
    133          1           0       -9.725748   -3.424523   -2.897594
    134          1           0      -11.077770   -5.039925   -2.914312
    135          1           0      -10.637391   -5.599141   -1.224245
    136          1           0       -2.621905   -1.078053    0.289426
    137          1           0       -1.901591    0.019602   -0.919112
    138          1           0       -2.999735   -1.376534   -1.363921
    139          1           0       -0.820125    3.286932   -0.009976
    140          1           0       -1.109130    2.229912   -1.443171
    141          1           0       -1.006648    1.652918    0.224566
    142          1           0       -7.496072    5.837653   -0.993705
    143          1           0       -9.782651    5.666680    0.930056
    144          1           0       -7.840965    6.899173    1.566094
    145          1           0       -6.265586    6.874407    0.975426
    146          1           0       -6.757202    5.554978    2.018741
    147          1           0      -10.183863    5.367303   -2.020941
    148          1           0       -9.442562    6.822161   -1.503526
    149          1           0      -12.067010    6.116275   -1.401920
    150          1           0      -11.516111    7.672111   -1.254542
    151          1           0      -11.528818    6.642161    0.224904
    152          1           0      -13.717609    3.071880   -0.524611
    153          1           0      -14.148383    2.064939    0.872054
    154          1           0      -14.601121    1.420630   -0.691062
    155          1           0      -11.843610   -3.009238   -1.461439
    156          1           0      -13.349159   -5.190129    2.029964
    157          1           0      -11.766705   -5.581185    1.292870
    158          1           0      -13.324935   -6.323179    0.653634
 ---------------------------------------------------------------------

 SCF Done:  E(RPBE1PBE) =  -4067.37466295     A.U. after   16 cycles

 Excitation energies and oscillator strengths:

 Excited State   1:      Singlet-A      1.7249 eV  718.79 nm  f=0.0000  <S**2>=0.000
     312 -> 313        0.70701
 This state for optimization and/or second-order correction.
 Total Energy, E(TD-HF/TD-DFT) =  -4067.31127419
 Copying the excited state density for this state as the 1-particle RhoCI density.

 Excited State   2:      Singlet-A      1.8141 eV  683.46 nm  f=0.4723  <S**2>=0.000
     309 -> 315        0.14852
     311 -> 313        0.69279
     311 <- 313       -0.11449

 Excited State   3:      Singlet-A      1.9173 eV  646.68 nm  f=0.3254  <S**2>=0.000
     310 -> 316        0.18989
     312 -> 314        0.68489

 Excited State   4:      Singlet-A      2.0047 eV  618.47 nm  f=0.0000  <S**2>=0.000
     311 -> 314        0.70705

 Excited State   5:      Singlet-A      2.1898 eV  566.19 nm  f=0.1087  <S**2>=0.000
     309 -> 313        0.65549
     311 -> 315       -0.22818

 The electronic state is 1-A.
 Alpha  occ. eigenvalues --  -46.92070 -46.91286 -19.26022 -19.22827 -19.19733
 Alpha  occ. eigenvalues --  -19.19356 -19.19280 -19.19063 -19.18819 -19.18381
 Alpha  occ. eigenvalues --  -14.41975 -14.41567 -14.41482 -14.40792 -14.39797
 Alpha  occ. eigenvalues --  -14.39587 -14.39439 -14.38298 -10.36317 -10.35086
 Alpha  occ. eigenvalues --  -10.32473 -10.32162 -10.31852 -10.31485 -10.29364
 Alpha  occ. eigenvalues --  -10.28759 -10.28651 -10.28613 -10.28559 -10.28559
 Alpha  occ. eigenvalues --  -10.28473 -10.28418 -10.28384 -10.28378 -10.28318
 Alpha  occ. eigenvalues --  -10.28204 -10.28108 -10.27997 -10.27826 -10.27756
 Alpha  occ. eigenvalues --  -10.27262 -10.27044 -10.27008 -10.26797 -10.26310
 Alpha  occ. eigenvalues --  -10.26306 -10.26111 -10.26091 -10.26029 -10.25977
 Alpha  occ. eigenvalues --  -10.25956 -10.25951 -10.25796 -10.25621 -10.25564
 Alpha  occ. eigenvalues --  -10.25465 -10.25284 -10.25208 -10.25122 -10.25072
 Alpha  occ. eigenvalues --  -10.25069 -10.25068 -10.24936 -10.24852 -10.24837
 Alpha  occ. eigenvalues --  -10.24776 -10.24667 -10.24335 -10.24128 -10.24101
 Alpha  occ. eigenvalues --  -10.23899 -10.23854 -10.23839 -10.23704 -10.23640
 Alpha  occ. eigenvalues --  -10.23603 -10.23530 -10.23502 -10.23496 -10.23454
 Alpha  occ. eigenvalues --  -10.23343 -10.23285 -10.23202 -10.22781 -10.22534
 Alpha  occ. eigenvalues --  -10.22453  -3.14254  -3.13620  -1.87104  -1.86619
 Alpha  occ. eigenvalues --   -1.86490  -1.86431  -1.86005  -1.85862  -1.11522
 Alpha  occ. eigenvalues --   -1.11091  -1.04440  -1.04013  -1.03860  -1.02999
 Alpha  occ. eigenvalues --   -1.02572  -1.00936  -1.00591  -0.99492  -0.99426
 Alpha  occ. eigenvalues --   -0.98011  -0.97856  -0.96978  -0.96538  -0.95020
 Alpha  occ. eigenvalues --   -0.87745  -0.87015  -0.84556  -0.83781  -0.83399
 Alpha  occ. eigenvalues --   -0.82948  -0.82841  -0.82678  -0.82031  -0.81695
 Alpha  occ. eigenvalues --   -0.81548  -0.81495  -0.81151  -0.80701  -0.79167
 Alpha  occ. eigenvalues --   -0.78490  -0.78395  -0.77772  -0.77376  -0.76901
 Alpha  occ. eigenvalues --   -0.76594  -0.75865  -0.75766  -0.75447  -0.75174
 Alpha  occ. eigenvalues --   -0.74533  -0.73098  -0.72869  -0.72188  -0.71947
 Alpha  occ. eigenvalues --   -0.71679  -0.71041  -0.70944  -0.69768  -0.69551
 Alpha  occ. eigenvalues --   -0.69505  -0.67640  -0.67494  -0.66577  -0.66039
 Alpha  occ. eigenvalues --   -0.64050  -0.63832  -0.63538  -0.63076  -0.62693
 Alpha  occ. eigenvalues --   -0.62358  -0.61875  -0.61105  -0.60996  -0.60068
 Alpha  occ. eigenvalues --   -0.60028  -0.59843  -0.59728  -0.59371  -0.59294
 Alpha  occ. eigenvalues --   -0.58440  -0.57333  -0.55415  -0.55076  -0.54679
 Alpha  occ. eigenvalues --   -0.54551  -0.54244  -0.53925  -0.53564  -0.53538
 Alpha  occ. eigenvalues --   -0.53082  -0.53055  -0.52812  -0.52413  -0.52156
 Alpha  occ. eigenvalues --   -0.51226  -0.50965  -0.50445  -0.50264  -0.50030
 Alpha  occ. eigenvalues --   -0.49707  -0.49163  -0.48752  -0.48592  -0.48459
 Alpha  occ. eigenvalues --   -0.48238  -0.48104  -0.47888  -0.47689  -0.47650
 Alpha  occ. eigenvalues --   -0.47506  -0.47246  -0.46815  -0.46734  -0.46628
 Alpha  occ. eigenvalues --   -0.46421  -0.46333  -0.46154  -0.45976  -0.45919
 Alpha  occ. eigenvalues --   -0.45768  -0.45584  -0.45324  -0.45179  -0.45072
 Alpha  occ. eigenvalues --   -0.45020  -0.44779  -0.44711  -0.44428  -0.44368
 Alpha  occ. eigenvalues --   -0.44336  -0.44055  -0.43798  -0.43452  -0.43400
 Alpha  occ. eigenvalues --   -0.43211  -0.43200  -0.43178  -0.43139  -0.42728
 Alpha  occ. eigenvalues --   -0.42693  -0.42612  -0.42554  -0.42174  -0.42082
 Alpha  occ. eigenvalues --   -0.41874  -0.41870  -0.41588  -0.41463  -0.41429
 Alpha  occ. eigenvalues --   -0.41150  -0.41088  -0.41025  -0.40894  -0.40731
 Alpha  occ. eigenvalues --   -0.40550  -0.40130  -0.40078  -0.40037  -0.39994
 Alpha  occ. eigenvalues --   -0.39732  -0.39500  -0.39384  -0.38980  -0.38925
 Alpha  occ. eigenvalues --   -0.38766  -0.38666  -0.38377  -0.38287  -0.38281
 Alpha  occ. eigenvalues --   -0.38183  -0.38082  -0.37725  -0.37697  -0.37507
 Alpha  occ. eigenvalues --   -0.37402  -0.37167  -0.37097  -0.36769  -0.36744
 Alpha  occ. eigenvalues --   -0.36657  -0.36538  -0.36508  -0.36234  -0.36231
 Alpha  occ. eigenvalues --   -0.36156  -0.36000  -0.35884  -0.35852  -0.35460
 Alpha  occ. eigenvalues --   -0.35218  -0.35046  -0.35039  -0.34764  -0.33942
 Alpha  occ. eigenvalues --   -0.33885  -0.33628  -0.33083  -0.32741  -0.32632
 Alpha  occ. eigenvalues --   -0.32296  -0.32083  -0.31238  -0.31192  -0.31120
 Alpha  occ. eigenvalues --   -0.30794  -0.29773  -0.29600  -0.29249  -0.29112
 Alpha  occ. eigenvalues --   -0.28757  -0.28544  -0.28374  -0.27338  -0.27022
 Alpha  occ. eigenvalues --   -0.26377  -0.26047  -0.25996  -0.25883  -0.25612
 Alpha  occ. eigenvalues --   -0.25454  -0.25179  -0.24747  -0.21218  -0.21180
 Alpha  occ. eigenvalues --   -0.19006  -0.18776
 Alpha virt. eigenvalues --   -0.11630  -0.10867  -0.05723  -0.05406  -0.04183
 Alpha virt. eigenvalues --   -0.03683  -0.02125  -0.02091  -0.00497  -0.00328
 Alpha virt. eigenvalues --    0.00189   0.00885   0.01260   0.01269   0.01753

 Mulliken charges:
               1
     1  Mg  12.000000
     2  C    5.999998
     3  C    6.000000
     4  C    6.000002
     5  C    6.000000
     6  N    6.999999
     7  C    6.000001
     8  C    6.000000
     9  C    6.000000
    10  C    5.999997
    11  C    6.000000
    12  C    6.000000
    13  C    6.000000
    14  H    1.000000
    15  N    7.000000
    16  C    5.999996
    17  C    5.999998
    18  C    5.999999
    19  C    5.999997
    20  C    6.000000
    21  C    5.999999
    22  O    7.999998
    23  C    6.000000
    24  N    7.000001
    25  C    5.999996
    26  C    6.000001
    27  C    5.999999
    28  C    5.999999
    29  C    6.000000
    30  C    6.000000
    31  C    6.000000
    32  N    7.000001
    33  C    6.000001
    34  C    5.999999
    35  C    5.999998
    36  C    6.000002
    37  C    5.999999
    38  C    6.000002
    39  O    8.000002
    40  C    6.000000
    41  C    6.000000
    42  O    8.000000
    43  O    8.000000
    44  C    6.000000
    45  H    0.999999
    46  H    1.000000
    47  H    1.000001
    48  H    1.000000
    49  H    1.000000
    50  H    1.000000
    51  H    0.999999
    52  H    1.000000
    53  H    1.000001
    54  H    1.000000
    55  H    1.000000
    56  H    1.000000
    57  H    0.999999
    58  H    0.999999
    59  H    0.999999
    60  H    1.000000
    61  H    1.000000
    62  H    0.999999
    63  H    1.000000
    64  H    1.000000
    65  H    0.999999
    66  H    1.000000
    67  H    1.000000
    68  H    1.000000
    69  H    1.000001
    70  H    1.000000
    71  H    1.000000
    72  H    1.000000
    73  H    1.000008
    74  H    1.000001
    75  H    1.000000
    76  H    1.000000
    77  H    1.000000
    78  H    1.000000
    79  H    1.000000
    80  Mg  12.000000
    81  C    6.000000
    82  C    6.000000
    83  C    6.000000
    84  C    6.000000
    85  N    6.999999
    86  C    6.000002
    87  C    6.000000
    88  C    6.000000
    89  C    5.999999
    90  C    6.000000
    91  C    6.000000
    92  C    6.000000
    93  H    1.000001
    94  N    7.000000
    95  C    5.999998
    96  C    6.000003
    97  C    5.999999
    98  C    5.999999
    99  C    6.000000
   100  C    5.999998
   101  O    8.000001
   102  C    6.000000
   103  N    7.000000
   104  C    5.999999
   105  C    6.000000
   106  C    6.000000
   107  C    6.000002
   108  C    6.000000
   109  C    6.000000
   110  C    6.000000
   111  N    7.000000
   112  C    6.000002
   113  C    6.000002
   114  C    6.000001
   115  C    6.000001
   116  C    6.000000
   117  C    6.000001
   118  O    8.000002
   119  C    6.000000
   120  C    6.000000
   121  O    8.000001
   122  O    8.000000
   123  C    6.000000
   124  H    1.000000
   125  H    1.000000
   126  H    1.000000
   127  H    1.000000
   128  H    1.000000
   129  H    1.000000
   130  H    1.000000
   131  H    1.000000
   132  H    1.000000
   133  H    1.000000
   134  H    1.000000
   135  H    1.000000
   136  H    0.999999
   137  H    0.999999
   138  H    0.999999
   139  H    1.000001
   140  H    0.999999
   141  H    1.000002
   142  H    1.000000
   143  H    1.000000
   144  H    1.000000
   145  H    1.000000
   146  H    1.000000
   147  H    1.000000
   148  H    1.000000
   149  H    1.000000
   150  H    1.000000
   151  H    1.000000
   152  H    1.000001
   153  H    1.000001
   154  H    1.000000
   155  H    1.000000
   156  H    1.000000
   157  H    1.000000
   158  H    1.000000
 Sum of Mulliken charges = 624.00000

 Dipole moment (field-independent basis, Debye):
    X=             -0.0018    Y=             -0.0000    Z=              0.0005  Tot=              0.0019
 Quadrupole moment (field-independent basis, Debye-Ang):
   XX=             -0.0048   YY=              0.0003   ZZ=              0.0001
   XY=             -0.0004   XZ=              0.0045   YZ=              0.0002

 Normal termination of Gaussian 16 at Fri Oct 15 06:20:27 2021.
