 Gaussian 16, Revision A.03,
 Gaussian 16:  ES64L-G16RevA.03 25-Dec-2016

 ---------------------------------------------------------
 #p PBE1PBE/Def2SVP td=(nstates=5, root=1) density=current
 ---------------------------------------------------------

 --------------------------------
 TDDFT excited states in gaussian
 --------------------------------
 Symbolic Z-matrix:
 Charge =  0 Multiplicity = 1

                         Standard orientation:
 ---------------------------------------------------------------------
 Center     Atomic      Atomic             Coordinates (Angstroms)
 Number     Number       Type             X           Y           Z
 ---------------------------------------------------------------------
      1         12           0        0.665963   -0.040044   -0.161967
      2          6           0       -2.793132    0.332417   -0.315146
      3          6           0        0.269200   -3.455825   -0.062608
      4          6           0        4.011487   -0.219310    0.259557
      5          6           0        0.923746    3.512072    0.130819
      6          7           0       -1.069088   -1.349208   -0.077196
      7          6           0       -2.381577   -1.005381   -0.180071
      8          6           0       -3.280160   -2.245601   -0.269996
      9          6           0       -2.228306   -3.417756   -0.033367
     10          6           0       -0.895561   -2.662803   -0.074834
     11          6           0       -2.438145   -4.114677    1.305526
     12          6           0       -3.960285   -2.501389   -1.661991
     13          6           0       -5.268840   -3.248105   -1.666218
     14          1           0       -5.682920   -3.988171   -0.473921
     15          7           0        1.937501   -1.597136   -0.027901
     16          6           0        1.564498   -2.955779    0.002667
     17          6           0        2.788643   -3.710159   -0.063830
     18          6           0        3.895093   -2.824366   -0.026125
     19          6           0        3.307160   -1.465988    0.076027
     20          6           0        2.840040   -5.217748    0.062372
     21          6           0        5.342696   -3.074292   -0.106536
     22          8           0        6.178781   -2.230709    0.137788
     23          6           0        5.886242   -4.526695   -0.362646
     24          7           0        2.333576    1.450943   -0.011127
     25          6           0        3.570958    1.100392    0.175169
     26          6           0        4.495181    2.342899    0.349895
     27          6           0        3.557947    3.531686    0.238783
     28          6           0        2.147690    2.843247    0.163606
     29          6           0        5.361129    2.211657    1.690092
     30          6           0        3.894441    4.460357   -0.947063
     31          6           0        4.781340    5.724940   -0.641885
     32          7           0       -0.538479    1.576813   -0.354086
     33          6           0       -0.310855    2.968063   -0.210566
     34          6           0       -1.502919    3.704116   -0.396370
     35          6           0       -2.520516    2.658613   -0.356413
     36          6           0       -1.829681    1.413175   -0.365025
     37          6           0       -1.662370    5.203214   -0.220564
     38          6           0       -3.929115    2.513164   -0.326556
     39          8           0       -4.841751    3.328586   -0.369592
     40          6           0       -4.170425    0.864264   -0.388651
     41          6           0       -5.079967    0.558845    0.765047
     42          8           0       -4.817282    0.804430    1.947052
     43          8           0       -6.354097    0.072379    0.346953
     44          6           0       -7.321483   -0.243799    1.443975
     45          1           0        0.068375   -4.529444   -0.032468
     46          1           0        5.045445   -0.364939    0.578080
     47          1           0        0.949635    4.602950    0.163412
     48          1           0       -3.991747   -2.163760    0.551918
     49          1           0       -2.285119   -4.198688   -0.791554
     50          1           0       -3.410971   -3.868696    1.730348
     51          1           0       -1.622924   -3.935325    2.007017
     52          1           0       -2.566714   -5.194052    1.224460
     53          1           0       -3.236654   -3.022674   -2.287695
     54          1           0       -4.044295   -1.528619   -2.147005
     55          1           0       -5.182843   -4.029940   -2.420509
     56          1           0       -6.073642   -2.552879   -1.905217
     57          1           0        3.318985   -5.555560    0.981328
     58          1           0        3.342392   -5.612116   -0.821919
     59          1           0        1.878374   -5.728687    0.106901
     60          1           0        5.863378   -5.025728    0.606486
     61          1           0        6.948131   -4.491805   -0.606490
     62          1           0        5.239427   -5.068719   -1.051456
     63          1           0        5.170755    2.263456   -0.502008
     64          1           0        3.493356    4.084964    1.174435
     65          1           0        5.198312    3.073039    2.337720
     66          1           0        6.437217    2.245151    1.518617
     67          1           0        4.988680    1.303013    2.164905
     68          1           0        2.936502    4.803773   -1.339185
     69          1           0        4.357715    3.834005   -1.709547
     70          1           0        4.114872    6.521823   -0.310004
     71          1           0        5.465906    6.087600   -1.408901
     72          1           0        5.304647    5.384557    0.251004
     73          1           0       -1.368824    5.597833   -1.192944
     74          1           0       -0.989109    5.588350    0.544349
     75          1           0       -2.604385    5.544176    0.210836
     76          1           0       -4.597803    0.609462   -1.359248
     77          1           0       -7.585573    0.645650    2.014889
     78          1           0       -7.046992   -1.005154    2.174594
     79          1           0       -8.177837   -0.532393    0.834492
 ---------------------------------------------------------------------

 SCF Done:  E(RPBE1PBE) =  -2033.71778859     A.U. after   16 cycles

 Excitation energies and oscillator strengths:

 Excited State   1:      Singlet-A      1.8459 eV  671.68 nm  f=0.3591  <S**2>=0.000
     155 ->158         0.17464
     156 ->157         0.69230
     156 <-157        -0.10446
 This state for optimization and/or second-order correction.
 Total Energy, E(TD-HF/TD-DFT) =  -2033.64995401
 Copying the excited state density for this state as the 1-particle RhoCI density.

 Excited State   2:      Singlet-A      2.2119 eV  560.54 nm  f=0.1398  <S**2>=0.000
     155 ->157         0.66068
     156 ->158        -0.23958

 Excited State   3:      Singlet-A      2.8476 eV  435.41 nm  f=0.0003  <S**2>=0.000
     154 ->157         0.67811
     154 ->159        -0.14304

 Excited State   4:      Singlet-A      2.9264 eV  423.68 nm  f=0.0011  <S**2>=0.000
     152 ->157         0.66865
     152 ->159         0.13654

 Excited State   5:      Singlet-A      3.0612 eV  405.02 nm  f=0.0037  <S**2>=0.000
     151 ->157        -0.21311
     153 ->157         0.65769

 The electronic state is 1-A.
 Alpha  occ. eigenvalues --  -46.91407 -19.24914 -19.19776 -19.19180 -19.18884
 Alpha  occ. eigenvalues --  -14.42145 -14.41211 -14.39739 -14.39218 -10.36198
 Alpha  occ. eigenvalues --  -10.32297 -10.31816 -10.29093 -10.29010 -10.28810
 Alpha  occ. eigenvalues --  -10.28780 -10.28493 -10.28396 -10.28326 -10.27117
 Alpha  occ. eigenvalues --  -10.26897 -10.26861 -10.26015 -10.25975 -10.25859
 Alpha  occ. eigenvalues --  -10.25792 -10.25637 -10.25491 -10.25450 -10.25415
 Alpha  occ. eigenvalues --  -10.25259 -10.25145 -10.24894 -10.24613 -10.24506
 Alpha  occ. eigenvalues --  -10.24107 -10.23937 -10.23600 -10.23473 -10.23387
 Alpha  occ. eigenvalues --  -10.23312 -10.23239 -10.22777  -3.13679  -1.86534
 Alpha  occ. eigenvalues --   -1.86046  -1.85924  -1.08274  -1.05570  -1.03750
 Alpha  occ. eigenvalues --   -1.00751  -0.99807  -0.98746  -0.98171  -0.96855
 Alpha  occ. eigenvalues --   -0.86624  -0.83579  -0.83245  -0.82659  -0.82036
 Alpha  occ. eigenvalues --   -0.81753  -0.80751  -0.78558  -0.77389  -0.76480
 Alpha  occ. eigenvalues --   -0.75733  -0.74605  -0.74307  -0.72852  -0.71666
 Alpha  occ. eigenvalues --   -0.71197  -0.70218  -0.69421  -0.67660  -0.66063
 Alpha  occ. eigenvalues --   -0.63841  -0.63382  -0.62600  -0.61673  -0.60198
 Alpha  occ. eigenvalues --   -0.59739  -0.59488  -0.59248  -0.56079  -0.54803
 Alpha  occ. eigenvalues --   -0.54279  -0.53950  -0.53246  -0.52430  -0.51888
 Alpha  occ. eigenvalues --   -0.50831  -0.49548  -0.49225  -0.48628  -0.47862
 Alpha  occ. eigenvalues --   -0.47733  -0.47385  -0.47060  -0.46846  -0.46760
 Alpha  occ. eigenvalues --   -0.46674  -0.46227  -0.45773  -0.45296  -0.44678
 Alpha  occ. eigenvalues --   -0.44454  -0.44201  -0.43889  -0.43849  -0.43641
 Alpha  occ. eigenvalues --   -0.43174  -0.43040  -0.42871  -0.42381  -0.42254
 Alpha  occ. eigenvalues --   -0.41908  -0.41792  -0.41671  -0.41576  -0.40505
 Alpha  occ. eigenvalues --   -0.39997  -0.39863  -0.39515  -0.39292  -0.38907
 Alpha  occ. eigenvalues --   -0.38837  -0.38737  -0.38285  -0.37948  -0.37784
 Alpha  occ. eigenvalues --   -0.37576  -0.37041  -0.36860  -0.36751  -0.36503
 Alpha  occ. eigenvalues --   -0.36211  -0.35732  -0.35103  -0.34734  -0.34437
 Alpha  occ. eigenvalues --   -0.33615  -0.32819  -0.32303  -0.32060  -0.31256
 Alpha  occ. eigenvalues --   -0.30796  -0.29728  -0.29201  -0.28590  -0.27014
 Alpha  occ. eigenvalues --   -0.26049  -0.25724  -0.25511  -0.25100  -0.21122
 Alpha  occ. eigenvalues --   -0.19155
 Alpha virt. eigenvalues --   -0.11551  -0.05250  -0.03994  -0.02052  -0.00014
 Alpha virt. eigenvalues --    0.01125   0.01306   0.02223   0.02943   0.04048
 Alpha virt. eigenvalues --    0.04859   0.05414   0.06112   0.06269   0.07293

 Mulliken charges:
               1
     1  Mg   0.980706
     2  C   -0.078490
     3  C   -0.085596
     4  C   -0.066441
     5  C   -0.069135
     6  N   -0.385196
     7  C    0.057930
     8  C   -0.070017
     9  C   -0.167822
    10  C    0.092731
    11  C    0.011575
    12  C    0.000402
    13  C   -0.120640
    14  H    0.046314
    15  N   -0.560451
    16  C    0.234734
    17  C   -0.167012
    18  C   -0.056419
    19  C    0.166845
    20  C    0.042782
    21  C    0.015776
    22  O   -0.239438
    23  C   -0.019616
    24  N   -0.364425
    25  C    0.072348
    26  C   -0.116445
    27  C   -0.074935
    28  C    0.060891
    29  C    0.002769
    30  C   -0.019486
    31  C   -0.061941
    32  N   -0.488573
    33  C    0.138951
    34  C   -0.133141
    35  C   -0.084779
    36  C    0.213717
    37  C    0.049128
    38  C    0.123768
    39  O   -0.218749
    40  C   -0.121701
    41  C    0.310703
    42  O   -0.266169
    43  O   -0.405708
    44  C    0.126498
    45  H    0.008850
    46  H    0.036008
    47  H    0.008026
    48  H    0.061229
    49  H    0.051768
    50  H    0.038642
    51  H    0.057351
    52  H    0.029508
    53  H    0.034433
    54  H    0.037664
    55  H    0.055235
    56  H    0.071806
    57  H    0.063870
    58  H    0.052722
    59  H    0.029696
    60  H    0.055523
    61  H    0.052958
    62  H    0.042877
    63  H    0.062580
    64  H    0.042906
    65  H    0.035353
    66  H    0.051844
    67  H    0.061779
    68  H    0.037015
    69  H    0.038510
    70  H    0.044027
    71  H    0.060595
    72  H    0.038631
    73  H    0.061494
    74  H    0.045080
    75  H    0.068872
    76  H    0.079005
    77  H    0.062548
    78  H    0.058275
    79  H    0.057075
 Sum of Mulliken charges =  -0.00000

 Dipole moment (field-independent basis, Debye):
    X=              1.3736    Y=             -3.4081    Z=             -0.9219  Tot=              3.7884
 Quadrupole moment (field-independent basis, Debye-Ang):
   XX=           -273.4562   YY=           -224.7100   ZZ=           -257.0288
   XY=             35.0531   XZ=              0.7815   YZ=              0.9991

 Normal termination of Gaussian 16 at Wed Oct 13 15:18:16 2021.
