 Gaussian 16, Revision A.03,
 Gaussian 16:  ES64L-G16RevA.03 25-Dec-2016

 --------------------------------------------------------
 #p PBE1PBE/Def2SVP td=(nstates=5) density=(transition=1)
 --------------------------------------------------------

 --------------------------------
 TDDFT excited states in gaussian
 --------------------------------
 Symbolic Z-matrix:
 Charge =  0 Multiplicity = 1

                         Standard orientation:
 ---------------------------------------------------------------------
 Center     Atomic      Atomic             Coordinates (Angstroms)
 Number     Number       Type             X           Y           Z
 ---------------------------------------------------------------------
      1         12           0       30.468811   -0.351595    0.121243
      2          6           0       27.134529    0.134270    1.119592
      3          6           0       29.439329   -3.046642   -1.749328
      4          6           0       33.436688   -0.264325   -1.338084
      5          6           0       31.352535    2.603375    1.883351
      6          7           0       28.497333   -1.163859   -0.455997
      7          6           0       27.231120   -0.815264    0.080930
      8          6           0       26.198221   -1.831786   -0.183322
      9          6           0       26.997691   -2.909299   -1.035740
     10          6           0       28.419465   -2.370879   -1.063050
     11          6           0       26.801414   -4.350524   -0.506246
     12          6           0       25.053004   -1.357104   -1.024797
     13          6           0       25.388126   -0.377060   -2.158979
     14          1           0       24.616259   -0.416687   -3.535147
     15          7           0       31.377415   -1.519506   -1.337469
     16          6           0       30.821073   -2.627100   -1.864137
     17          6           0       31.807093   -3.286174   -2.683494
     18          6           0       33.006831   -2.548262   -2.531305
     19          6           0       32.670594   -1.393865   -1.682564
     20          6           0       31.572005   -4.496619   -3.546525
     21          6           0       34.357890   -2.906057   -3.149875
     22          8           0       34.484819   -3.889221   -3.853255
     23          6           0       35.624865   -2.104628   -3.098719
     24          7           0       32.055992    1.104720    0.050195
     25          6           0       33.235664    0.875724   -0.606534
     26          6           0       34.346239    1.880864   -0.156189
     27          6           0       33.522052    2.944370    0.630770
     28          6           0       32.243859    2.177695    0.890840
     29          6           0       35.463117    1.283987    0.733775
     30          6           0       33.057266    4.231156   -0.201435
     31          6           0       33.259720    5.555146    0.441767
     32          7           0       29.559726    1.002650    1.317163
     33          6           0       30.078478    1.981368    2.070970
     34          6           0       29.106612    2.365464    3.163135
     35          6           0       27.952850    1.592215    2.817641
     36          6           0       28.231976    0.895566    1.607913
     37          6           0       29.251354    3.348833    4.315654
     38          6           0       26.568417    1.416309    3.149470
     39          8           0       25.886023    1.938951    4.016493
     40          6           0       25.992056    0.424822    2.059771
     41          6           0       24.990667    1.208499    1.236856
     42          8           0       25.209082    2.099541    0.484307
     43          8           0       23.750866    0.633755    1.419301
     44          6           0       22.738088    1.103010    0.468299
     45          1           0       29.144054   -4.007268   -2.176047
     46          1           0       34.474427   -0.318516   -1.671316
     47          1           0       31.735754    3.418439    2.500801
     48          1           0       25.820352   -2.175497    0.779573
     49          1           0       26.798452   -2.915401   -2.107310
     50          1           0       26.570458   -4.870744   -1.436003
     51          1           0       25.974746   -4.317851    0.203531
     52          1           0       27.714172   -4.782303   -0.095227
     53          1           0       24.184431   -1.036221   -0.449104
     54          1           0       24.537483   -2.142344   -1.578170
     55          1           0       26.456925   -0.507810   -2.331673
     56          1           0       25.273080    0.587427   -1.664066
     57          1           0       32.002843   -4.359624   -4.538902
     58          1           0       30.508090   -4.732048   -3.571234
     59          1           0       32.106413   -5.294655   -3.030557
     60          1           0       35.595606   -1.147783   -3.618967
     61          1           0       36.279963   -2.713733   -3.721746
     62          1           0       36.107856   -2.126450   -2.121229
     63          1           0       34.815821    2.279102   -1.055542
     64          1           0       33.987467    3.245654    1.569592
     65          1           0       35.372079    1.707852    1.733688
     66          1           0       36.431951    1.302865    0.234939
     67          1           0       35.276795    0.217066    0.851181
     68          1           0       32.017683    4.139743   -0.515250
     69          1           0       33.660875    4.183103   -1.107934
     70          1           0       33.852674    6.238241   -0.166064
     71          1           0       33.704485    5.493360    1.435246
     72          1           0       32.317335    6.083154    0.584903
     73          1           0       28.456616    4.084609    4.192554
     74          1           0       30.289439    3.682724    4.338397
     75          1           0       28.984289    2.786840    5.210516
     76          1           0       25.543269   -0.463226    2.504252
     77          1           0       23.158909    1.392166   -0.494619
     78          1           0       22.304333    1.968550    0.969192
     79          1           0       21.953823    0.346553    0.476460
     80         12           0      -30.282085    0.403987   -0.170755
     81          6           0      -27.595987   -0.478151    1.848448
     82          6           0      -31.841113   -2.480921    0.839139
     83          6           0      -32.844256    1.128557   -2.367383
     84          6           0      -28.431434    3.000885   -1.578517
     85          7           0      -29.795435   -1.218879    1.262666
     86          6           0      -28.715293   -1.330840    2.054491
     87          6           0      -28.785444   -2.476643    3.090755
     88          6           0      -30.068615   -3.263742    2.583002
     89          6           0      -30.622726   -2.290923    1.435018
     90          6           0      -29.634289   -4.692898    2.098397
     91          6           0      -28.948082   -1.791164    4.543310
     92          6           0      -27.917277   -2.213509    5.631274
     93          1           0      -27.206232   -3.584725    5.341581
     94          7           0      -32.060507   -0.538539   -0.775329
     95          6           0      -32.561838   -1.701117   -0.154218
     96          6           0      -33.920943   -1.917315   -0.602567
     97          6           0      -34.212371   -0.932307   -1.554696
     98          6           0      -33.036872    0.015201   -1.556382
     99          6           0      -34.664619   -3.222996   -0.287412
    100          6           0      -35.494844   -0.784396   -2.415671
    101          8           0      -35.700331    0.120628   -3.245920
    102          6           0      -36.643042   -1.781774   -2.184349
    103          7           0      -30.513453    1.828996   -1.792729
    104          6           0      -31.746045    1.932439   -2.506621
    105          6           0      -31.612850    2.945634   -3.662699
    106          6           0      -30.295179    3.731762   -3.210234
    107          6           0      -29.724847    2.823325   -2.089576
    108          6           0      -31.577357    2.201645   -4.987446
    109          6           0      -30.643684    5.170251   -2.638093
    110          6           0      -31.684606    5.465427   -1.504982
    111          7           0      -28.403446    1.091990   -0.008108
    112          6           0      -27.752217    2.151509   -0.647208
    113          6           0      -26.424756    2.258889   -0.134905
    114          6           0      -26.325283    1.300778    0.857766
    115          6           0      -27.514001    0.529984    0.844811
    116          6           0      -25.325395    3.185313   -0.612932
    117          6           0      -25.460914    0.769257    1.835508
    118          8           0      -24.321840    1.057558    2.022269
    119          6           0      -26.218315   -0.487208    2.434749
    120          6           0      -25.424877   -1.691454    2.008799
    121          8           0      -25.774340   -2.461192    1.138470
    122          8           0      -24.297645   -1.704061    2.730053
    123          6           0      -23.260510   -2.512633    2.137441
    124          1           0      -32.380321   -3.352949    1.214364
    125          1           0      -33.540366    1.198407   -3.205045
    126          1           0      -27.834162    3.803356   -2.017613
    127          1           0      -27.901646   -3.112503    3.138895
    128          1           0      -30.865701   -3.364698    3.319949
    129          1           0      -30.089561   -5.022749    1.164272
    130          1           0      -29.985828   -5.268755    2.954030
    131          1           0      -28.544945   -4.712787    2.120014
    132          1           0      -29.987135   -1.922891    4.844438
    133          1           0      -28.849056   -0.716099    4.391220
    134          1           0      -28.558001   -2.265529    6.510872
    135          1           0      -27.128896   -1.486947    5.825667
    136          1           0      -34.957756   -3.660586   -1.242046
    137          1           0      -35.593239   -2.991434    0.235992
    138          1           0      -34.025773   -3.880803    0.301066
    139          1           0      -36.323485   -2.733038   -2.611893
    140          1           0      -37.460256   -1.437250   -2.817820
    141          1           0      -36.996390   -1.698762   -1.156849
    142          1           0      -32.456392    3.623889   -3.530953
    143          1           0      -29.668359    3.932085   -4.078429
    144          1           0      -32.120624    1.256859   -4.962769
    145          1           0      -30.549331    1.991113   -5.281418
    146          1           0      -32.077727    2.776161   -5.766701
    147          1           0      -30.881556    5.812407   -3.486180
    148          1           0      -29.705382    5.469039   -2.170674
    149          1           0      -32.662669    5.598849   -1.967467
    150          1           0      -31.349620    6.394502   -1.042296
    151          1           0      -31.699092    4.763517   -0.670574
    152          1           0      -25.600355    4.235911   -0.517713
    153          1           0      -25.217405    2.934583   -1.667996
    154          1           0      -24.410040    3.178746   -0.019508
    155          1           0      -26.305316   -0.558837    3.519057
    156          1           0      -22.250943   -2.159278    2.345923
    157          1           0      -23.313023   -2.840957    1.099488
    158          1           0      -23.215817   -3.524237    2.541457
 ---------------------------------------------------------------------

 SCF Done:  E(RPBE1PBE) =  -4067.37094048     A.U. after   16 cycles

 Excitation energies and oscillator strengths:

 Excited State   1:      Singlet-A      1.8294 eV  677.74 nm  f=0.3623  <S**2>=0.000
     309 -> 315        0.16662
     311 -> 313        0.69539
     311 <- 313       -0.11481
 This state for optimization and/or second-order correction.
 Total Energy, E(TD-HF/TD-DFT) =  -4067.30371185
 Copying the excited state density for this state as the 1-particle RhoCI density.

 Excited State   2:      Singlet-A      1.8555 eV  668.19 nm  f=0.3766  <S**2>=0.000
     310 -> 316       -0.16976
     312 -> 314        0.69318
     312 <- 314       -0.10777

 Excited State   3:      Singlet-A      1.9448 eV  637.52 nm  f=0.0000  <S**2>=0.000
     312 -> 313        0.70711

 Excited State   4:      Singlet-A      2.0368 eV  608.73 nm  f=0.0000  <S**2>=0.000
     311 -> 314        0.70711

 Excited State   5:      Singlet-A      2.2281 eV  556.47 nm  f=0.1213  <S**2>=0.000
     310 -> 314        0.65667
     312 -> 316        0.24643

 The electronic state is 1-A.
 Alpha  occ. eigenvalues --  -46.91960 -46.91467 -19.26687 -19.25254 -19.20586
 Alpha  occ. eigenvalues --  -19.20172 -19.19355 -19.19341 -19.18991 -19.18421
 Alpha  occ. eigenvalues --  -14.41880 -14.41704 -14.41407 -14.40929 -14.39310
 Alpha  occ. eigenvalues --  -14.39246 -14.39116 -14.38640 -10.36234 -10.36204
 Alpha  occ. eigenvalues --  -10.32434 -10.32133 -10.31735 -10.31723 -10.29182
 Alpha  occ. eigenvalues --  -10.28994 -10.28660 -10.28612 -10.28494 -10.28486
 Alpha  occ. eigenvalues --  -10.28434 -10.28349 -10.28228 -10.28202 -10.28063
 Alpha  occ. eigenvalues --  -10.27731 -10.27667 -10.27617 -10.27582 -10.27558
 Alpha  occ. eigenvalues --  -10.27367 -10.27070 -10.26486 -10.26369 -10.26329
 Alpha  occ. eigenvalues --  -10.26325 -10.26262 -10.26143 -10.26114 -10.25931
 Alpha  occ. eigenvalues --  -10.25930 -10.25792 -10.25658 -10.25637 -10.25609
 Alpha  occ. eigenvalues --  -10.25578 -10.25528 -10.25348 -10.25326 -10.25248
 Alpha  occ. eigenvalues --  -10.25058 -10.24913 -10.24719 -10.24716 -10.24707
 Alpha  occ. eigenvalues --  -10.24442 -10.24278 -10.24254 -10.24145 -10.24119
 Alpha  occ. eigenvalues --  -10.24077 -10.24051 -10.24039 -10.23964 -10.23592
 Alpha  occ. eigenvalues --  -10.23504 -10.23330 -10.23189 -10.23002 -10.22913
 Alpha  occ. eigenvalues --  -10.22910 -10.22893 -10.22793 -10.22776 -10.22775
 Alpha  occ. eigenvalues --  -10.22131  -3.14181  -3.13647  -1.86983  -1.86560
 Alpha  occ. eigenvalues --   -1.86489  -1.86422  -1.85998  -1.85893  -1.12832
 Alpha  occ. eigenvalues --   -1.11989  -1.06574  -1.05114  -1.04699  -1.03775
 Alpha  occ. eigenvalues --   -1.03774  -1.03197  -0.99208  -0.98678  -0.98676
 Alpha  occ. eigenvalues --   -0.97907  -0.97884  -0.97282  -0.97256  -0.95981
 Alpha  occ. eigenvalues --   -0.87533  -0.87006  -0.84140  -0.83735  -0.82928
 Alpha  occ. eigenvalues --   -0.82694  -0.82337  -0.82022  -0.81838  -0.81315
 Alpha  occ. eigenvalues --   -0.80804  -0.80631  -0.80361  -0.80104  -0.79003
 Alpha  occ. eigenvalues --   -0.78456  -0.78179  -0.77619  -0.76991  -0.76527
 Alpha  occ. eigenvalues --   -0.75887  -0.75476  -0.75180  -0.75150  -0.74801
 Alpha  occ. eigenvalues --   -0.74189  -0.72287  -0.72049  -0.71792  -0.71371
 Alpha  occ. eigenvalues --   -0.71126  -0.71002  -0.70350  -0.70089  -0.69501
 Alpha  occ. eigenvalues --   -0.69339  -0.67339  -0.67164  -0.66086  -0.65632
 Alpha  occ. eigenvalues --   -0.63933  -0.63284  -0.63223  -0.63058  -0.63025
 Alpha  occ. eigenvalues --   -0.62306  -0.61519  -0.60857  -0.60288  -0.60253
 Alpha  occ. eigenvalues --   -0.59616  -0.59060  -0.59056  -0.59012  -0.58896
 Alpha  occ. eigenvalues --   -0.58381  -0.56903  -0.56650  -0.54511  -0.54436
 Alpha  occ. eigenvalues --   -0.54070  -0.53915  -0.53531  -0.53516  -0.53400
 Alpha  occ. eigenvalues --   -0.52742  -0.52685  -0.52583  -0.52004  -0.51818
 Alpha  occ. eigenvalues --   -0.51106  -0.50681  -0.50528  -0.50292  -0.49961
 Alpha  occ. eigenvalues --   -0.49662  -0.49499  -0.49191  -0.49021  -0.48680
 Alpha  occ. eigenvalues --   -0.48488  -0.47792  -0.47750  -0.47607  -0.47562
 Alpha  occ. eigenvalues --   -0.47003  -0.46883  -0.46796  -0.46765  -0.46616
 Alpha  occ. eigenvalues --   -0.46507  -0.46367  -0.46253  -0.46198  -0.45938
 Alpha  occ. eigenvalues --   -0.45768  -0.45554  -0.45529  -0.45077  -0.44613
 Alpha  occ. eigenvalues --   -0.44423  -0.44395  -0.44221  -0.44045  -0.43991
 Alpha  occ. eigenvalues --   -0.43932  -0.43810  -0.43519  -0.43518  -0.43418
 Alpha  occ. eigenvalues --   -0.43269  -0.43192  -0.43066  -0.42957  -0.42590
 Alpha  occ. eigenvalues --   -0.42437  -0.42222  -0.42165  -0.41882  -0.41801
 Alpha  occ. eigenvalues --   -0.41679  -0.41597  -0.41450  -0.41336  -0.41095
 Alpha  occ. eigenvalues --   -0.41018  -0.40923  -0.40690  -0.40594  -0.40408
 Alpha  occ. eigenvalues --   -0.40251  -0.40242  -0.39967  -0.39736  -0.39655
 Alpha  occ. eigenvalues --   -0.39493  -0.39473  -0.39227  -0.39160  -0.38937
 Alpha  occ. eigenvalues --   -0.38837  -0.38693  -0.38457  -0.38410  -0.38371
 Alpha  occ. eigenvalues --   -0.38142  -0.38028  -0.37870  -0.37745  -0.37651
 Alpha  occ. eigenvalues --   -0.37475  -0.37370  -0.37239  -0.37164  -0.37034
 Alpha  occ. eigenvalues --   -0.36998  -0.36861  -0.36713  -0.36619  -0.36205
 Alpha  occ. eigenvalues --   -0.36061  -0.35690  -0.35650  -0.35634  -0.35265
 Alpha  occ. eigenvalues --   -0.35165  -0.34786  -0.34483  -0.34079  -0.34029
 Alpha  occ. eigenvalues --   -0.33417  -0.32831  -0.32664  -0.32458  -0.32245
 Alpha  occ. eigenvalues --   -0.32084  -0.32071  -0.31924  -0.31529  -0.31449
 Alpha  occ. eigenvalues --   -0.31193  -0.30738  -0.29901  -0.29596  -0.29404
 Alpha  occ. eigenvalues --   -0.29175  -0.28662  -0.28248  -0.27122  -0.26994
 Alpha  occ. eigenvalues --   -0.26129  -0.26082  -0.25572  -0.25500  -0.25457
 Alpha  occ. eigenvalues --   -0.25244  -0.25153  -0.25126  -0.21220  -0.20670
 Alpha  occ. eigenvalues --   -0.18698  -0.18596
 Alpha virt. eigenvalues --   -0.11232  -0.10992  -0.05312  -0.04908  -0.03996
 Alpha virt. eigenvalues --   -0.03619  -0.01901  -0.01900  -0.01319  -0.00317
 Alpha virt. eigenvalues --    0.00561   0.00889   0.01020   0.01414   0.01626

 Mulliken charges:
               1
     1  Mg  12.001986
     2  C    6.027563
     3  C    5.992206
     4  C    5.978639
     5  C    6.007294
     6  N    7.006590
     7  C    5.960491
     8  C    6.013899
     9  C    5.991482
    10  C    6.029012
    11  C    5.998125
    12  C    6.003503
    13  C    6.005645
    14  H    0.991539
    15  N    6.991950
    16  C    6.039865
    17  C    6.022073
    18  C    6.005469
    19  C    6.042656
    20  C    5.997278
    21  C    6.010645
    22  O    8.018419
    23  C    5.996379
    24  N    6.996104
    25  C    6.032703
    26  C    5.993689
    27  C    6.005458
    28  C    5.976704
    29  C    6.000174
    30  C    6.007193
    31  C    6.000257
    32  N    7.001195
    33  C    5.965857
    34  C    5.960920
    35  C    6.005124
    36  C    5.962839
    37  C    6.000379
    38  C    5.985018
    39  O    7.975084
    40  C    5.998018
    41  C    5.997295
    42  O    7.996299
    43  O    7.997975
    44  C    6.001217
    45  H    1.012246
    46  H    1.007576
    47  H    0.988883
    48  H    0.998689
    49  H    0.998143
    50  H    1.000133
    51  H    1.012243
    52  H    0.998209
    53  H    1.003495
    54  H    0.991440
    55  H    0.990518
    56  H    1.006641
    57  H    1.015865
    58  H    1.017110
    59  H    1.017417
    60  H    1.010489
    61  H    1.010685
    62  H    1.011133
    63  H    0.999612
    64  H    1.000249
    65  H    1.012025
    66  H    1.000081
    67  H    0.995346
    68  H    1.000763
    69  H    0.986115
    70  H    0.994712
    71  H    0.999427
    72  H    1.002946
    73  H    0.981727
    74  H    0.982686
    75  H    0.981373
    76  H    0.990255
    77  H    0.996042
    78  H    0.998631
    79  H    0.994887
    80  Mg  12.000008
    81  C    5.999839
    82  C    6.000125
    83  C    6.000159
    84  C    6.000038
    85  N    7.000007
    86  C    6.000241
    87  C    5.999931
    88  C    6.000066
    89  C    5.999777
    90  C    6.000019
    91  C    5.999981
    92  C    5.999979
    93  H    1.000025
    94  N    7.000037
    95  C    5.999708
    96  C    5.999909
    97  C    5.999917
    98  C    5.999765
    99  C    6.000020
   100  C    5.999854
   101  O    7.999804
   102  C    6.000034
   103  N    7.000020
   104  C    5.999765
   105  C    6.000066
   106  C    5.999916
   107  C    6.000174
   108  C    6.000028
   109  C    5.999975
   110  C    6.000021
   111  N    6.999996
   112  C    6.000136
   113  C    6.000209
   114  C    5.999943
   115  C    6.000167
   116  C    6.000004
   117  C    6.000155
   118  O    8.000224
   119  C    5.999992
   120  C    6.000031
   121  O    8.000058
   122  O    8.000002
   123  C    5.999966
   124  H    0.999897
   125  H    0.999951
   126  H    1.000096
   127  H    0.999994
   128  H    0.999991
   129  H    1.000015
   130  H    0.999962
   131  H    0.999922
   132  H    1.000068
   133  H    0.999972
   134  H    1.000028
   135  H    0.999995
   136  H    0.999884
   137  H    0.999878
   138  H    0.999874
   139  H    0.999939
   140  H    0.999892
   141  H    0.999953
   142  H    1.000001
   143  H    1.000022
   144  H    1.000049
   145  H    0.999923
   146  H    0.999956
   147  H    1.000052
   148  H    0.999968
   149  H    1.000042
   150  H    0.999999
   151  H    1.000012
   152  H    1.000148
   153  H    1.000113
   154  H    1.000110
   155  H    1.000099
   156  H    1.000046
   157  H    1.000011
   158  H    1.000048
 Sum of Mulliken charges = 624.00000

 Dipole moment (field-independent basis, Debye):
    X=              4.8837    Y=             -6.3338    Z=             -6.3618  Tot=             10.2196
 Quadrupole moment (field-independent basis, Debye-Ang):
   XX=            287.0531   YY=              5.4165   ZZ=             -3.5506
   XY=           -196.7964   XZ=           -195.0022   YZ=              1.7631

 Normal termination of Gaussian 16 at Thu Oct 14 00:10:25 2021.
