 Gaussian 16, Revision A.03,
 Gaussian 16:  ES64L-G16RevA.03 25-Dec-2016

 --------------------------------------------------------
 #p PBE1PBE/Def2SVP td=(nstates=5) density=(transition=1)
 --------------------------------------------------------

 --------------------------------
 TDDFT excited states in gaussian
 --------------------------------
 Symbolic Z-matrix:
 Charge =  0 Multiplicity = 1

                         Standard orientation:
 ---------------------------------------------------------------------
 Center     Atomic      Atomic             Coordinates (Angstroms)
 Number     Number       Type             X           Y           Z
 ---------------------------------------------------------------------
      1         12           0      -21.435444   -0.791956   -0.312144
      2          6           0      -23.013933    2.131482    1.059142
      3          6           0      -19.502794    1.443414   -2.271448
      4          6           0      -19.866455   -3.493171   -1.873561
      5          6           0      -23.574931   -2.800201    1.284680
      6          7           0      -21.465460    1.599039   -0.689814
      7          6           0      -22.100972    2.516961    0.069692
      8          6           0      -21.777525    3.962127   -0.454769
      9          6           0      -20.818592    3.623163   -1.651513
     10          6           0      -20.490899    2.119414   -1.505591
     11          6           0      -21.442350    3.999719   -3.040649
     12          6           0      -21.119927    4.856019    0.596321
     13          6           0      -21.632067    6.256108    0.686142
     14          1           0      -21.083257    7.174620    1.787522
     15          7           0      -19.796530   -1.027791   -1.669529
     16          6           0      -19.171526    0.012910   -2.348459
     17          6           0      -18.121416   -0.553625   -3.171439
     18          6           0      -18.121223   -1.929699   -3.013989
     19          6           0      -19.353762   -2.224714   -2.208260
     20          6           0      -17.285689    0.224218   -4.146954
     21          6           0      -17.223389   -3.054790   -3.673894
     22          8           0      -17.281336   -4.246084   -3.490659
     23          6           0      -16.037035   -2.632661   -4.513309
     24          7           0      -21.744869   -2.789075   -0.437997
     25          6           0      -21.025681   -3.746511   -1.104687
     26          6           0      -21.701398   -5.136123   -1.039606
     27          6           0      -22.729258   -4.964504    0.158485
     28          6           0      -22.653708   -3.404451    0.371053
     29          6           0      -22.324614   -5.576963   -2.402624
     30          6           0      -22.364849   -5.767468    1.444207
     31          6           0      -21.116809   -5.296408    2.187383
     32          7           0      -22.980194   -0.491615    0.879695
     33          6           0      -23.784649   -1.444836    1.564178
     34          6           0      -24.786154   -0.773355    2.389600
     35          6           0      -24.479029    0.592703    2.256705
     36          6           0      -23.387942    0.731837    1.358544
     37          6           0      -25.804228   -1.423989    3.205819
     38          6           0      -24.919881    1.906080    2.715388
     39          8           0      -25.780382    2.194751    3.530058
     40          6           0      -24.041858    2.989494    1.886023
     41          6           0      -23.489370    3.814890    3.050570
     42          8           0      -22.616270    3.496555    3.877906
     43          8           0      -24.144632    4.961278    3.107349
     44          6           0      -23.609035    6.080624    3.983775
     45          1           0      -18.863365    2.142616   -2.813752
     46          1           0      -19.441078   -4.397572   -2.315510
     47          1           0      -24.190952   -3.515955    1.832472
     48          1           0      -22.755295    4.391426   -0.670728
     49          1           0      -19.860444    4.136026   -1.557565
     50          1           0      -20.846342    4.662476   -3.668044
     51          1           0      -22.485728    4.311483   -2.989409
     52          1           0      -21.508175    3.193471   -3.771563
     53          1           0      -20.176177    5.091921    0.104285
     54          1           0      -20.956800    4.351110    1.549094
     55          1           0      -22.706918    6.442584    0.711664
     56          1           0      -21.294129    6.697855   -0.251344
     57          1           0      -17.437949    1.297233   -4.033391
     58          1           0      -17.455039   -0.015533   -5.197841
     59          1           0      -16.206774    0.118267   -4.032557
     60          1           0      -15.320523   -2.035616   -3.949279
     61          1           0      -16.528978   -2.106782   -5.331627
     62          1           0      -15.685368   -3.574491   -4.934521
     63          1           0      -20.865834   -5.819896   -0.885887
     64          1           0      -23.791756   -5.008424   -0.081844
     65          1           0      -21.792584   -6.412574   -2.857300
     66          1           0      -22.500269   -4.813232   -3.159416
     67          1           0      -23.322861   -5.876668   -2.083079
     68          1           0      -22.474094   -6.826165    1.208571
     69          1           0      -23.173123   -5.614762    2.159180
     70          1           0      -20.534306   -4.518585    1.694982
     71          1           0      -20.474907   -6.173923    2.260947
     72          1           0      -21.292386   -4.796059    3.139014
     73          1           0      -26.465716   -0.745858    3.745339
     74          1           0      -25.247074   -2.045412    3.906788
     75          1           0      -26.374833   -2.084866    2.551781
     76          1           0      -24.665489    3.692065    1.333260
     77          1           0      -24.097594    6.989046    3.630691
     78          1           0      -22.541841    6.252720    3.847175
     79          1           0      -23.754038    5.905092    5.050365
     80         12           0       21.324758   -0.660205    0.515632
     81          6           0       21.035369    2.092781   -1.758604
     82          6           0       21.868346    1.761283    3.022519
     83          6           0       22.317667   -3.007508    2.567086
     84          6           0       21.133620   -2.799237   -2.120743
     85          7           0       21.380144    1.651677    0.590186
     86          6           0       21.123263    2.471111   -0.457592
     87          6           0       21.025751    3.898438    0.055307
     88          6           0       21.254822    3.872991    1.592851
     89          6           0       21.483520    2.359936    1.773248
     90          6           0       22.481813    4.827483    2.088306
     91          6           0       19.623941    4.573085   -0.266573
     92          6           0       19.663005    5.977236   -0.870542
     93          1           0       20.802910    7.001231   -0.479524
     94          7           0       22.057105   -0.619234    2.523546
     95          6           0       22.161725    0.420233    3.324125
     96          6           0       22.672541   -0.054941    4.579006
     97          6           0       22.695122   -1.472707    4.585892
     98          6           0       22.392022   -1.747915    3.205847
     99          6           0       22.828776    0.847665    5.801730
    100          6           0       22.868996   -2.528066    5.666804
    101          8           0       22.920788   -3.720384    5.426568
    102          6           0       22.913627   -2.022994    7.082731
    103          7           0       22.010811   -2.556751    0.156008
    104          6           0       22.179386   -3.418845    1.241122
    105          6           0       22.137094   -4.918415    0.839870
    106          6           0       21.593184   -4.768574   -0.630866
    107          6           0       21.567256   -3.264358   -0.901768
    108          6           0       23.524017   -5.562131    0.981415
    109          6           0       20.098525   -5.312354   -0.819478
    110          6           0       19.897260   -6.606838   -1.533486
    111          7           0       21.017990   -0.451817   -1.468252
    112          6           0       20.996735   -1.434793   -2.433990
    113          6           0       20.902357   -0.896329   -3.788391
    114          6           0       20.908282    0.528729   -3.577786
    115          6           0       21.103282    0.734657   -2.191622
    116          6           0       20.634013   -1.717333   -4.997474
    117          6           0       20.746907    1.826802   -4.214578
    118          8           0       20.533735    2.050393   -5.420144
    119          6           0       20.855649    2.946150   -3.030248
    120          6           0       22.018653    3.746077   -3.380516
    121          8           0       23.125640    3.284944   -3.553380
    122          8           0       21.710778    5.045118   -3.473647
    123          6           0       22.715823    6.077468   -3.878481
    124          1           0       21.969730    2.465671    3.850674
    125          1           0       22.220444   -3.864909    3.237290
    126          1           0       20.992964   -3.526552   -2.922705
    127          1           0       21.839839    4.458334   -0.405022
    128          1           0       20.409828    4.293577    2.138269
    129          1           0       22.680289    5.613760    1.359904
    130          1           0       23.326904    4.149925    2.212843
    131          1           0       22.238982    5.263569    3.057170
    132          1           0       18.918701    4.592251    0.563184
    133          1           0       19.107296    3.979885   -1.020991
    134          1           0       18.724673    6.509028   -0.711559
    135          1           0       19.683877    5.774426   -1.941311
    136          1           0       21.990411    0.806394    6.497300
    137          1           0       23.095009    1.866367    5.518219
    138          1           0       23.719443    0.495664    6.321727
    139          1           0       22.204589   -1.227879    7.315252
    140          1           0       23.883487   -1.644867    7.402954
    141          1           0       22.518322   -2.794362    7.743712
    142          1           0       21.435997   -5.412704    1.511807
    143          1           0       22.263876   -5.318099   -1.291522
    144          1           0       24.257502   -4.945688    1.500941
    145          1           0       23.971679   -5.770109    0.010224
    146          1           0       23.425796   -6.511840    1.508272
    147          1           0       19.431009   -4.638876   -1.356989
    148          1           0       19.560760   -5.394808    0.124320
    149          1           0       19.464029   -7.344950   -0.859711
    150          1           0       20.910243   -6.882870   -1.826944
    151          1           0       19.223050   -6.475322   -2.379745
    152          1           0       20.014192   -1.178774   -5.713521
    153          1           0       20.238359   -2.667155   -4.638230
    154          1           0       21.601874   -1.910884   -5.461969
    155          1           0       19.976866    3.588883   -2.999843
    156          1           0       23.217827    5.754446   -4.790673
    157          1           0       23.479936    6.240044   -3.117951
    158          1           0       22.303558    7.082982   -3.957966
 ---------------------------------------------------------------------

 SCF Done:  E(RPBE1PBE) =  -4067.35642896     A.U. after   16 cycles

 Excitation energies and oscillator strengths:

 Excited State   1:      Singlet-A      1.8203 eV  681.13 nm  f=0.3522  <S**2>=0.000
     309 -> 315       -0.17692
     311 -> 313        0.69228
     311 <- 313       -0.10909
 This state for optimization and/or second-order correction.
 Total Energy, E(TD-HF/TD-DFT) =  -4067.28953545
 Copying the excited state density for this state as the 1-particle RhoCI density.

 Excited State   2:      Singlet-A      1.8475 eV  671.08 nm  f=0.3944  <S**2>=0.000
     310 -> 316        0.16134
     312 -> 314        0.69518
     312 <- 314       -0.11632

 Excited State   3:      Singlet-A      1.9430 eV  638.12 nm  f=0.0000  <S**2>=0.000
     312 -> 313        0.70711

 Excited State   4:      Singlet-A      1.9570 eV  633.54 nm  f=0.0000  <S**2>=0.000
     311 -> 314        0.70711

 Excited State   5:      Singlet-A      2.2073 eV  561.70 nm  f=0.1231  <S**2>=0.000
     310 -> 314        0.66024
     312 -> 316       -0.23231

 The electronic state is 1-A.
 Alpha  occ. eigenvalues --  -46.92042 -46.91724 -19.25849 -19.25590 -19.19730
 Alpha  occ. eigenvalues --  -19.19665 -19.19640 -19.19280 -19.18691 -19.18284
 Alpha  occ. eigenvalues --  -14.41973 -14.41382 -14.41282 -14.41125 -14.39742
 Alpha  occ. eigenvalues --  -14.39427 -14.39100 -14.38725 -10.35526 -10.35436
 Alpha  occ. eigenvalues --  -10.32896 -10.32697 -10.32663 -10.32618 -10.29725
 Alpha  occ. eigenvalues --  -10.29439 -10.29246 -10.29099 -10.29091 -10.28995
 Alpha  occ. eigenvalues --  -10.28832 -10.28692 -10.28538 -10.28299 -10.28261
 Alpha  occ. eigenvalues --  -10.27978 -10.27845 -10.27688 -10.27331 -10.27329
 Alpha  occ. eigenvalues --  -10.26932 -10.26693 -10.26680 -10.26563 -10.26425
 Alpha  occ. eigenvalues --  -10.26312 -10.26248 -10.26243 -10.26227 -10.26212
 Alpha  occ. eigenvalues --  -10.26187 -10.26042 -10.25998 -10.25960 -10.25910
 Alpha  occ. eigenvalues --  -10.25855 -10.25826 -10.25696 -10.25649 -10.25523
 Alpha  occ. eigenvalues --  -10.25437 -10.25183 -10.24930 -10.24710 -10.24625
 Alpha  occ. eigenvalues --  -10.24502 -10.24295 -10.24278 -10.24224 -10.24090
 Alpha  occ. eigenvalues --  -10.23947 -10.23919 -10.23705 -10.23669 -10.23582
 Alpha  occ. eigenvalues --  -10.23531 -10.23492 -10.23480 -10.23338 -10.23336
 Alpha  occ. eigenvalues --  -10.23298 -10.23225 -10.22976 -10.22974 -10.22832
 Alpha  occ. eigenvalues --  -10.22458  -3.14247  -3.13991  -1.87052  -1.86817
 Alpha  occ. eigenvalues --   -1.86627  -1.86480  -1.86383  -1.86220  -1.11287
 Alpha  occ. eigenvalues --   -1.10748  -1.06156  -1.05572  -1.04835  -1.03186
 Alpha  occ. eigenvalues --   -1.02144  -1.00112  -0.99357  -0.98397  -0.98165
 Alpha  occ. eigenvalues --   -0.97752  -0.97749  -0.96873  -0.96582  -0.96387
 Alpha  occ. eigenvalues --   -0.86508  -0.85226  -0.83495  -0.83030  -0.82946
 Alpha  occ. eigenvalues --   -0.82599  -0.82358  -0.82297  -0.81718  -0.81456
 Alpha  occ. eigenvalues --   -0.81286  -0.81248  -0.80768  -0.80765  -0.78529
 Alpha  occ. eigenvalues --   -0.78427  -0.78398  -0.77870  -0.76931  -0.76646
 Alpha  occ. eigenvalues --   -0.76004  -0.75665  -0.75613  -0.75341  -0.75042
 Alpha  occ. eigenvalues --   -0.74507  -0.72585  -0.72433  -0.71988  -0.71621
 Alpha  occ. eigenvalues --   -0.71257  -0.71185  -0.70573  -0.70285  -0.69491
 Alpha  occ. eigenvalues --   -0.69235  -0.67065  -0.66961  -0.66094  -0.65895
 Alpha  occ. eigenvalues --   -0.64417  -0.63181  -0.63173  -0.62246  -0.62068
 Alpha  occ. eigenvalues --   -0.61975  -0.61334  -0.60665  -0.59967  -0.59898
 Alpha  occ. eigenvalues --   -0.59631  -0.59598  -0.59229  -0.59147  -0.59031
 Alpha  occ. eigenvalues --   -0.58660  -0.57017  -0.56408  -0.55053  -0.54121
 Alpha  occ. eigenvalues --   -0.53932  -0.53748  -0.53492  -0.53442  -0.53110
 Alpha  occ. eigenvalues --   -0.52605  -0.52399  -0.52005  -0.51974  -0.50690
 Alpha  occ. eigenvalues --   -0.50654  -0.50285  -0.50194  -0.50005  -0.49765
 Alpha  occ. eigenvalues --   -0.49643  -0.49162  -0.48871  -0.48515  -0.48130
 Alpha  occ. eigenvalues --   -0.47982  -0.47819  -0.47745  -0.47577  -0.47540
 Alpha  occ. eigenvalues --   -0.47418  -0.47271  -0.47033  -0.46970  -0.46892
 Alpha  occ. eigenvalues --   -0.46703  -0.46650  -0.46211  -0.45913  -0.45802
 Alpha  occ. eigenvalues --   -0.45583  -0.45471  -0.45150  -0.45021  -0.44756
 Alpha  occ. eigenvalues --   -0.44726  -0.44533  -0.44397  -0.44215  -0.43888
 Alpha  occ. eigenvalues --   -0.43855  -0.43794  -0.43712  -0.43572  -0.43382
 Alpha  occ. eigenvalues --   -0.43229  -0.43215  -0.43085  -0.43083  -0.42809
 Alpha  occ. eigenvalues --   -0.42754  -0.42434  -0.42249  -0.42163  -0.42034
 Alpha  occ. eigenvalues --   -0.41511  -0.41454  -0.41361  -0.41294  -0.41073
 Alpha  occ. eigenvalues --   -0.40929  -0.40926  -0.40856  -0.40681  -0.40578
 Alpha  occ. eigenvalues --   -0.40307  -0.40045  -0.39913  -0.39894  -0.39711
 Alpha  occ. eigenvalues --   -0.39280  -0.39233  -0.39086  -0.39012  -0.38829
 Alpha  occ. eigenvalues --   -0.38672  -0.38441  -0.38427  -0.38261  -0.38167
 Alpha  occ. eigenvalues --   -0.37948  -0.37885  -0.37781  -0.37774  -0.37661
 Alpha  occ. eigenvalues --   -0.37385  -0.37252  -0.37238  -0.36982  -0.36741
 Alpha  occ. eigenvalues --   -0.36579  -0.36423  -0.36307  -0.36243  -0.36205
 Alpha  occ. eigenvalues --   -0.35923  -0.35743  -0.35458  -0.35277  -0.35204
 Alpha  occ. eigenvalues --   -0.35152  -0.34672  -0.34554  -0.34206  -0.34037
 Alpha  occ. eigenvalues --   -0.33575  -0.33357  -0.33069  -0.32930  -0.32541
 Alpha  occ. eigenvalues --   -0.32012  -0.31735  -0.31493  -0.31278  -0.31210
 Alpha  occ. eigenvalues --   -0.31092  -0.30673  -0.29665  -0.29122  -0.28750
 Alpha  occ. eigenvalues --   -0.28684  -0.28340  -0.27642  -0.26929  -0.26898
 Alpha  occ. eigenvalues --   -0.26473  -0.26093  -0.25856  -0.25849  -0.25694
 Alpha  occ. eigenvalues --   -0.25580  -0.25535  -0.25065  -0.21054  -0.20779
 Alpha  occ. eigenvalues --   -0.18650  -0.18616
 Alpha virt. eigenvalues --   -0.11170  -0.11154  -0.05509  -0.04724  -0.04062
 Alpha virt. eigenvalues --   -0.03606  -0.02343  -0.02069  -0.01012   0.00587
 Alpha virt. eigenvalues --    0.00684   0.00848   0.01094   0.01345   0.01407

 Mulliken charges:
               1
     1  Mg  11.999768
     2  C    6.016846
     3  C    5.985444
     4  C    5.979066
     5  C    6.000809
     6  N    7.009087
     7  C    5.974026
     8  C    6.004610
     9  C    5.994267
    10  C    6.029835
    11  C    5.998075
    12  C    6.005036
    13  C    6.001625
    14  H    0.999856
    15  N    6.995610
    16  C    6.041585
    17  C    6.015511
    18  C    6.016901
    19  C    6.034157
    20  C    5.994689
    21  C    6.012580
    22  O    8.025367
    23  C    5.996906
    24  N    6.988805
    25  C    6.037170
    26  C    5.993807
    27  C    6.003929
    28  C    5.968890
    29  C    5.995517
    30  C    6.004860
    31  C    6.005511
    32  N    7.002256
    33  C    5.967461
    34  C    5.971504
    35  C    5.997606
    36  C    5.970372
    37  C    6.000471
    38  C    5.984317
    39  O    7.973201
    40  C    5.997990
    41  C    5.996638
    42  O    7.994695
    43  O    7.999892
    44  C    6.001866
    45  H    1.010055
    46  H    1.006258
    47  H    0.988277
    48  H    1.003606
    49  H    0.998706
    50  H    1.002538
    51  H    1.011712
    52  H    0.997675
    53  H    0.991462
    54  H    1.003498
    55  H    1.003254
    56  H    0.994748
    57  H    1.016038
    58  H    1.018556
    59  H    1.017368
    60  H    1.007243
    61  H    1.004736
    62  H    1.013090
    63  H    0.997237
    64  H    1.002139
    65  H    0.999458
    66  H    0.998466
    67  H    1.012148
    68  H    0.990482
    69  H    1.003928
    70  H    0.989739
    71  H    0.992166
    72  H    1.003804
    73  H    0.986522
    74  H    0.982983
    75  H    0.982990
    76  H    0.991562
    77  H    0.995697
    78  H    0.994956
    79  H    0.998486
    80  Mg  11.999958
    81  C    6.000264
    82  C    5.999891
    83  C    5.999687
    84  C    6.000101
    85  N    7.000111
    86  C    5.999593
    87  C    6.000167
    88  C    5.999803
    89  C    6.000428
    90  C    5.999987
    91  C    6.000035
    92  C    6.000003
    93  H    0.999967
    94  N    6.999935
    95  C    6.000548
    96  C    6.000393
    97  C    6.000190
    98  C    6.000472
    99  C    5.999928
   100  C    6.000206
   101  O    8.000419
   102  C    5.999886
   103  N    6.999816
   104  C    6.000611
   105  C    5.999853
   106  C    6.000112
   107  C    5.999639
   108  C    5.999947
   109  C    6.000150
   110  C    6.000003
   111  N    6.999948
   112  C    5.999550
   113  C    5.999429
   114  C    6.000012
   115  C    5.999565
   116  C    6.000050
   117  C    5.999715
   118  O    7.999553
   119  C    5.999917
   120  C    5.999931
   121  O    7.999994
   122  O    7.999955
   123  C    6.000014
   124  H    1.000172
   125  H    1.000090
   126  H    0.999811
   127  H    1.000025
   128  H    1.000067
   129  H    1.000200
   130  H    1.000004
   131  H    1.000029
   132  H    0.999851
   133  H    1.000063
   134  H    0.999930
   135  H    1.000070
   136  H    1.000311
   137  H    1.000264
   138  H    1.000287
   139  H    1.000069
   140  H    1.000183
   141  H    1.000232
   142  H    0.999987
   143  H    0.999976
   144  H    0.999965
   145  H    1.000184
   146  H    1.000057
   147  H    1.000022
   148  H    0.999788
   149  H    0.999888
   150  H    1.000002
   151  H    0.999967
   152  H    0.999688
   153  H    0.999709
   154  H    0.999690
   155  H    0.999819
   156  H    1.000000
   157  H    0.999939
   158  H    0.999923
 Sum of Mulliken charges = 624.00000

 Dipole moment (field-independent basis, Debye):
    X=              7.5446    Y=             -0.8294    Z=             -6.6659  Tot=             10.1016
 Quadrupole moment (field-independent basis, Debye-Ang):
   XX=           -318.2566   YY=             -1.1542   ZZ=              5.5578
   XY=             11.4426   XZ=            146.4194   YZ=              4.4131

 Normal termination of Gaussian 16 at Thu Oct 14 14:49:25 2021.
