 Gaussian 16, Revision A.03,
 Gaussian 16:  ES64L-G16RevA.03 25-Dec-2016

 --------------------------------------------------------
 #p PBE1PBE/Def2SVP td=(nstates=5) density=(transition=1)
 --------------------------------------------------------

 --------------------------------
 TDDFT excited states in gaussian
 --------------------------------
 Symbolic Z-matrix:
 Charge =  0 Multiplicity = 1

                         Standard orientation:
 ---------------------------------------------------------------------
 Center     Atomic      Atomic             Coordinates (Angstroms)
 Number     Number       Type             X           Y           Z
 ---------------------------------------------------------------------
      1         12           0        8.820653    0.406611   -0.020486
      2          6           0        6.434877   -2.242248   -0.342718
      3          6           0        6.195823    2.493647    0.610079
      4          6           0       10.853912    2.834986   -0.180080
      5          6           0       11.070895   -1.607195   -1.760216
      6          7           0        6.638527    0.051876    0.094120
      7          6           0        5.857427   -1.020510    0.010200
      8          6           0        4.377243   -0.739279    0.406861
      9          6           0        4.333860    0.828819    0.121930
     10          6           0        5.803978    1.152698    0.321383
     11          6           0        3.944180    1.177138   -1.311013
     12          6           0        4.095278   -1.055675    1.914216
     13          6           0        2.615272   -1.121134    2.302357
     14          1           0        2.197003   -2.086314    3.307756
     15          7           0        8.658305    2.259412    0.645564
     16          6           0        7.509858    2.945571    0.858965
     17          6           0        7.917227    4.278270    1.353583
     18          6           0        9.398197    4.376249    1.230208
     19          6           0        9.697249    3.155078    0.526869
     20          6           0        6.953168    5.277059    1.916398
     21          6           0       10.385853    5.411879    1.666257
     22          8           0       11.596710    5.412441    1.255893
     23          6           0        9.869287    6.490745    2.527796
     24          7           0       10.622001    0.685925   -1.037720
     25          6           0       11.331931    1.809577   -0.888092
     26          6           0       12.703676    1.671531   -1.479020
     27          6           0       12.870968    0.127996   -1.852202
     28          6           0       11.454910   -0.363660   -1.463198
     29          6           0       12.987608    2.530105   -2.719280
     30          6           0       14.096974   -0.610126   -1.258483
     31          6           0       13.949921   -0.724383    0.242324
     32          7           0        8.852794   -1.636765   -0.751667
     33          6           0        9.884204   -2.259242   -1.469574
     34          6           0        9.403877   -3.603806   -1.837679
     35          6           0        8.111814   -3.664371   -1.319266
     36          6           0        7.794883   -2.425992   -0.691361
     37          6           0       10.117588   -4.560687   -2.611908
     38          6           0        6.916244   -4.478333   -1.171164
     39          8           0        6.628745   -5.650158   -1.419488
     40          6           0        5.738838   -3.547212   -0.639605
     41          6           0        5.072556   -4.264532    0.502686
     42          8           0        5.679718   -4.462996    1.574756
     43          8           0        3.762043   -4.391631    0.243953
     44          6           0        3.036477   -5.069108    1.351533
     45          1           0        5.440075    3.281180    0.586012
     46          1           0       11.625946    3.607094   -0.164189
     47          1           0       11.748807   -2.322232   -2.229906
     48          1           0        3.636780   -1.250165   -0.208877
     49          1           0        3.726192    1.358976    0.855002
     50          1           0        3.886080    0.286035   -1.935896
     51          1           0        4.727189    1.844532   -1.671533
     52          1           0        3.022082    1.758606   -1.331227
     53          1           0        4.409759   -0.208833    2.524150
     54          1           0        4.587566   -1.981915    2.212641
     55          1           0        1.974820   -1.184586    1.422185
     56          1           0        2.342201   -0.174322    2.768384
     57          1           0        5.920390    4.989757    1.723081
     58          1           0        7.087774    6.201116    1.354518
     59          1           0        7.126794    5.462771    2.976444
     60          1           0        9.069655    7.016572    2.005643
     61          1           0       10.734501    7.088225    2.812879
     62          1           0        9.416410    6.047681    3.415233
     63          1           0       13.470321    1.949575   -0.756959
     64          1           0       12.963631   -0.025065   -2.927684
     65          1           0       13.848517    3.189686   -2.607495
     66          1           0       12.086793    3.098417   -2.949161
     67          1           0       13.130296    1.967685   -3.641636
     68          1           0       15.008724   -0.045120   -1.449339
     69          1           0       14.235696   -1.611347   -1.666605
     70          1           0       14.320543    0.236662    0.597097
     71          1           0       14.561155   -1.543258    0.623175
     72          1           0       12.902408   -0.797916    0.535231
     73          1           0        9.975061   -5.521162   -2.116789
     74          1           0       11.174425   -4.304272   -2.682274
     75          1           0        9.601852   -4.472064   -3.567951
     76          1           0        5.059676   -3.391714   -1.477269
     77          1           0        2.523352   -5.928860    0.920531
     78          1           0        2.426436   -4.305818    1.834901
     79          1           0        3.655080   -5.555803    2.106381
     80         12           0       -8.779697    0.274580   -0.484608
     81          6           0       -7.204319   -1.218517    2.287086
     82          6           0       -8.258235    3.324805    1.102217
     83          6           0       -9.841546    1.840271   -3.225530
     84          6           0       -8.339092   -2.708966   -2.201498
     85          7           0       -7.667866    0.925198    1.428473
     86          6           0       -7.206018    0.167610    2.487079
     87          6           0       -6.997052    0.922040    3.783305
     88          6           0       -7.358920    2.378739    3.407389
     89          6           0       -7.773636    2.249899    1.905011
     90          6           0       -8.493995    3.021392    4.303581
     91          6           0       -5.539891    0.845470    4.424367
     92          6           0       -4.339737    0.712552    3.472754
     93          1           0       -3.457553    1.970106    3.216068
     94          7           0       -9.017638    2.258154   -0.970938
     95          6           0       -8.810365    3.350345   -0.177286
     96          6           0       -9.247893    4.567276   -0.875589
     97          6           0       -9.723282    4.150342   -2.156558
     98          6           0       -9.521730    2.668810   -2.157237
     99          6           0       -9.189568    5.960595   -0.260747
    100          6           0      -10.176113    5.240357   -3.198159
    101          8           0      -10.069007    6.416386   -2.879512
    102          6           0      -10.664776    4.809679   -4.644800
    103          7           0       -8.923217   -0.315099   -2.424212
    104          6           0       -9.554007    0.470923   -3.385833
    105          6           0       -9.778181   -0.374375   -4.763384
    106          6           0       -9.104525   -1.792331   -4.348880
    107          6           0       -8.781369   -1.581323   -2.904726
    108          6           0      -11.278623   -0.478273   -5.166415
    109          6           0       -7.816003   -2.201295   -5.183567
    110          6           0       -7.760186   -3.593070   -5.832296
    111          7           0       -8.055407   -1.660428   -0.048431
    112          6           0       -7.913748   -2.784753   -0.820751
    113          6           0       -7.288129   -3.842485    0.000684
    114          6           0       -7.110061   -3.260197    1.284296
    115          6           0       -7.556952   -1.915239    1.157731
    116          6           0       -6.900339   -5.230845   -0.426988
    117          6           0       -6.542646   -3.536569    2.617523
    118          8           0       -6.115543   -4.569521    3.153672
    119          6           0       -6.781295   -2.238395    3.374221
    120          6           0       -7.689247   -2.388538    4.461090
    121          8           0       -8.934905   -2.431913    4.288579
    122          8           0       -7.012953   -2.439700    5.696144
    123          6           0       -7.807620   -2.428344    6.920133
    124          1           0       -8.279844    4.286634    1.618185
    125          1           0      -10.338523    2.295679   -4.084152
    126          1           0       -8.291099   -3.625418   -2.792579
    127          1           0       -7.720775    0.451839    4.447987
    128          1           0       -6.411056    2.914845    3.376754
    129          1           0       -8.063306    3.804752    4.927181
    130          1           0       -8.891177    2.207674    4.910976
    131          1           0       -9.275933    3.473466    3.692510
    132          1           0       -5.610108   -0.083795    4.991154
    133          1           0       -5.412565    1.676130    5.118931
    134          1           0       -4.661538    0.343109    2.498505
    135          1           0       -3.701842   -0.088193    3.844581
    136          1           0       -8.371732    6.584970   -0.620537
    137          1           0       -9.307964    5.916556    0.821981
    138          1           0      -10.098449    6.519000   -0.484162
    139          1           0      -11.384257    4.002358   -4.506032
    140          1           0       -9.787014    4.476275   -5.197763
    141          1           0      -10.970446    5.643960   -5.276180
    142          1           0       -9.320565    0.220021   -5.553634
    143          1           0       -9.889681   -2.545875   -4.414561
    144          1           0      -11.657910   -1.419281   -4.768532
    145          1           0      -11.438678   -0.356248   -6.237735
    146          1           0      -11.899679    0.331704   -4.784245
    147          1           0       -6.959332   -2.042621   -4.527770
    148          1           0       -7.833263   -1.456455   -5.979181
    149          1           0       -6.739187   -3.894757   -6.067674
    150          1           0       -8.346652   -3.447154   -6.739137
    151          1           0       -8.215364   -4.249637   -5.090491
    152          1           0       -6.731778   -5.138024   -1.499529
    153          1           0       -7.824528   -5.786721   -0.269055
    154          1           0       -6.106635   -5.694876    0.159252
    155          1           0       -5.774622   -2.006254    3.721111
    156          1           0       -8.457495   -3.283896    7.104153
    157          1           0       -8.426079   -1.530924    6.953429
    158          1           0       -7.111502   -2.226937    7.734518
 ---------------------------------------------------------------------

 SCF Done:  E(RPBE1PBE) =  -4067.37318848     A.U. after   16 cycles

 Excitation energies and oscillator strengths:

 Excited State   1:      Singlet-A      1.8370 eV  674.93 nm  f=0.0000  <S**2>=0.000
     312 -> 313        0.70710
 This state for optimization and/or second-order correction.
 Total Energy, E(TD-HF/TD-DFT) =  -4067.30567994
 Copying the excited state density for this state as the 1-particle RhoCI density.

 Excited State   2:      Singlet-A      1.8403 eV  673.70 nm  f=0.2684  <S**2>=0.000
     310 -> 316        0.15906
     311 -> 313        0.68360
     312 -> 314        0.11584
     311 <- 313       -0.10938

 Excited State   3:      Singlet-A      1.8702 eV  662.94 nm  f=0.4541  <S**2>=0.000
     309 -> 315        0.17296
     311 -> 313       -0.11526
     312 -> 314        0.68235
     312 <- 314       -0.10252

 Excited State   4:      Singlet-A      1.9019 eV  651.91 nm  f=0.0000  <S**2>=0.000
     311 -> 314        0.70707

 Excited State   5:      Singlet-A      2.1923 eV  565.55 nm  f=0.0957  <S**2>=0.000
     310 -> 313        0.65174
     311 -> 316       -0.24088

 The electronic state is 1-A.
 Alpha  occ. eigenvalues --  -46.92514 -46.91101 -19.26751 -19.26566 -19.20586
 Alpha  occ. eigenvalues --  -19.19947 -19.19632 -19.19153 -19.18936 -19.18314
 Alpha  occ. eigenvalues --  -14.42231 -14.41881 -14.41849 -14.40873 -14.39692
 Alpha  occ. eigenvalues --  -14.39180 -14.38964 -14.38165 -10.37128 -10.35957
 Alpha  occ. eigenvalues --  -10.33793 -10.32700 -10.32419 -10.31468 -10.29711
 Alpha  occ. eigenvalues --  -10.29451 -10.29252 -10.29048 -10.28687 -10.28613
 Alpha  occ. eigenvalues --  -10.28611 -10.28599 -10.28534 -10.28129 -10.28125
 Alpha  occ. eigenvalues --  -10.28050 -10.27920 -10.27613 -10.27461 -10.27287
 Alpha  occ. eigenvalues --  -10.27173 -10.26950 -10.26790 -10.26439 -10.26435
 Alpha  occ. eigenvalues --  -10.26346 -10.26317 -10.26263 -10.26094 -10.26064
 Alpha  occ. eigenvalues --  -10.25968 -10.25831 -10.25782 -10.25650 -10.25549
 Alpha  occ. eigenvalues --  -10.25364 -10.25334 -10.25304 -10.25257 -10.25254
 Alpha  occ. eigenvalues --  -10.25189 -10.25182 -10.25112 -10.24826 -10.24776
 Alpha  occ. eigenvalues --  -10.24658 -10.24634 -10.24585 -10.24555 -10.24433
 Alpha  occ. eigenvalues --  -10.24389 -10.24182 -10.24134 -10.23727 -10.23635
 Alpha  occ. eigenvalues --  -10.23572 -10.23549 -10.23529 -10.23525 -10.23196
 Alpha  occ. eigenvalues --  -10.23186 -10.23008 -10.22849 -10.22502 -10.22317
 Alpha  occ. eigenvalues --  -10.22024  -3.14715  -3.13419  -1.87512  -1.87106
 Alpha  occ. eigenvalues --   -1.86941  -1.86241  -1.85806  -1.85652  -1.11253
 Alpha  occ. eigenvalues --   -1.09832  -1.05266  -1.03982  -1.03262  -1.01929
 Alpha  occ. eigenvalues --   -1.01764  -1.01297  -0.99076  -0.99023  -0.98343
 Alpha  occ. eigenvalues --   -0.98279  -0.97811  -0.97382  -0.97000  -0.96661
 Alpha  occ. eigenvalues --   -0.87692  -0.86229  -0.83750  -0.83632  -0.83334
 Alpha  occ. eigenvalues --   -0.83297  -0.82512  -0.82487  -0.82115  -0.81875
 Alpha  occ. eigenvalues --   -0.81358  -0.81292  -0.80606  -0.79974  -0.79118
 Alpha  occ. eigenvalues --   -0.78996  -0.78316  -0.78142  -0.77229  -0.77075
 Alpha  occ. eigenvalues --   -0.76768  -0.76032  -0.75761  -0.75385  -0.74831
 Alpha  occ. eigenvalues --   -0.74593  -0.73020  -0.72666  -0.71675  -0.71451
 Alpha  occ. eigenvalues --   -0.71191  -0.71105  -0.70984  -0.70120  -0.69433
 Alpha  occ. eigenvalues --   -0.69137  -0.67151  -0.66974  -0.66355  -0.65990
 Alpha  occ. eigenvalues --   -0.64143  -0.63837  -0.63514  -0.63123  -0.62982
 Alpha  occ. eigenvalues --   -0.62024  -0.61434  -0.61406  -0.60342  -0.59848
 Alpha  occ. eigenvalues --   -0.59587  -0.59308  -0.59283  -0.58989  -0.58915
 Alpha  occ. eigenvalues --   -0.58682  -0.57190  -0.56739  -0.54946  -0.54864
 Alpha  occ. eigenvalues --   -0.54299  -0.54195  -0.53772  -0.53528  -0.53388
 Alpha  occ. eigenvalues --   -0.53023  -0.52519  -0.52006  -0.51938  -0.51689
 Alpha  occ. eigenvalues --   -0.50831  -0.50782  -0.50234  -0.50232  -0.49955
 Alpha  occ. eigenvalues --   -0.49724  -0.49687  -0.49143  -0.48966  -0.48949
 Alpha  occ. eigenvalues --   -0.48543  -0.48341  -0.47853  -0.47748  -0.47639
 Alpha  occ. eigenvalues --   -0.47441  -0.47309  -0.47111  -0.47017  -0.46900
 Alpha  occ. eigenvalues --   -0.46829  -0.46368  -0.46330  -0.46071  -0.45964
 Alpha  occ. eigenvalues --   -0.45755  -0.45630  -0.45336  -0.45091  -0.45008
 Alpha  occ. eigenvalues --   -0.44713  -0.44558  -0.44388  -0.44121  -0.44086
 Alpha  occ. eigenvalues --   -0.44026  -0.44009  -0.43768  -0.43697  -0.43591
 Alpha  occ. eigenvalues --   -0.43373  -0.43113  -0.43108  -0.43024  -0.43000
 Alpha  occ. eigenvalues --   -0.42925  -0.42245  -0.42232  -0.41951  -0.41859
 Alpha  occ. eigenvalues --   -0.41517  -0.41471  -0.41293  -0.41150  -0.41122
 Alpha  occ. eigenvalues --   -0.41101  -0.40982  -0.40770  -0.40735  -0.40439
 Alpha  occ. eigenvalues --   -0.40262  -0.39916  -0.39860  -0.39710  -0.39588
 Alpha  occ. eigenvalues --   -0.39455  -0.39190  -0.39122  -0.39100  -0.38867
 Alpha  occ. eigenvalues --   -0.38809  -0.38729  -0.38646  -0.38231  -0.38163
 Alpha  occ. eigenvalues --   -0.38136  -0.37976  -0.37929  -0.37761  -0.37613
 Alpha  occ. eigenvalues --   -0.37423  -0.37381  -0.37308  -0.37225  -0.37059
 Alpha  occ. eigenvalues --   -0.36768  -0.36666  -0.36462  -0.36244  -0.36131
 Alpha  occ. eigenvalues --   -0.35864  -0.35691  -0.35671  -0.35510  -0.35393
 Alpha  occ. eigenvalues --   -0.35391  -0.34918  -0.34869  -0.34806  -0.34259
 Alpha  occ. eigenvalues --   -0.34094  -0.33330  -0.32817  -0.32699  -0.32598
 Alpha  occ. eigenvalues --   -0.32296  -0.32257  -0.32246  -0.32134  -0.31781
 Alpha  occ. eigenvalues --   -0.31583  -0.31132  -0.30149  -0.29418  -0.29228
 Alpha  occ. eigenvalues --   -0.29025  -0.28819  -0.28282  -0.27065  -0.26624
 Alpha  occ. eigenvalues --   -0.26365  -0.26147  -0.25928  -0.25778  -0.25489
 Alpha  occ. eigenvalues --   -0.25025  -0.24868  -0.24726  -0.21205  -0.20885
 Alpha  occ. eigenvalues --   -0.18670  -0.18653
 Alpha virt. eigenvalues --   -0.11136  -0.10911  -0.05440  -0.05260  -0.04145
 Alpha virt. eigenvalues --   -0.04065  -0.02557  -0.02083  -0.01329  -0.01186
 Alpha virt. eigenvalues --    0.00457   0.00534   0.00572   0.00633   0.00802

 Mulliken charges:
               1
     1  Mg  12.000000
     2  C    6.000000
     3  C    6.000000
     4  C    6.000000
     5  C    6.000000
     6  N    7.000000
     7  C    6.000000
     8  C    6.000000
     9  C    6.000000
    10  C    6.000000
    11  C    6.000000
    12  C    6.000000
    13  C    6.000000
    14  H    1.000000
    15  N    7.000000
    16  C    6.000000
    17  C    6.000000
    18  C    6.000000
    19  C    6.000000
    20  C    6.000000
    21  C    6.000000
    22  O    8.000000
    23  C    6.000000
    24  N    7.000000
    25  C    6.000000
    26  C    6.000000
    27  C    6.000000
    28  C    6.000000
    29  C    6.000000
    30  C    6.000000
    31  C    6.000000
    32  N    7.000000
    33  C    6.000000
    34  C    6.000000
    35  C    6.000000
    36  C    6.000000
    37  C    6.000000
    38  C    6.000000
    39  O    8.000000
    40  C    6.000000
    41  C    6.000000
    42  O    8.000000
    43  O    8.000000
    44  C    6.000000
    45  H    1.000000
    46  H    1.000000
    47  H    1.000000
    48  H    1.000000
    49  H    1.000000
    50  H    1.000000
    51  H    1.000000
    52  H    1.000000
    53  H    1.000000
    54  H    1.000000
    55  H    1.000000
    56  H    1.000000
    57  H    1.000000
    58  H    1.000000
    59  H    1.000000
    60  H    1.000000
    61  H    1.000000
    62  H    1.000000
    63  H    1.000000
    64  H    1.000000
    65  H    1.000000
    66  H    1.000000
    67  H    1.000000
    68  H    1.000000
    69  H    1.000000
    70  H    1.000000
    71  H    1.000000
    72  H    1.000000
    73  H    1.000000
    74  H    1.000000
    75  H    1.000000
    76  H    1.000000
    77  H    1.000000
    78  H    1.000000
    79  H    1.000000
    80  Mg  12.000000
    81  C    6.000000
    82  C    6.000000
    83  C    6.000000
    84  C    6.000000
    85  N    7.000000
    86  C    6.000000
    87  C    6.000000
    88  C    6.000000
    89  C    6.000000
    90  C    6.000000
    91  C    6.000001
    92  C    5.999998
    93  H    1.000001
    94  N    7.000000
    95  C    6.000000
    96  C    6.000000
    97  C    6.000000
    98  C    6.000000
    99  C    6.000000
   100  C    6.000000
   101  O    8.000000
   102  C    6.000000
   103  N    7.000000
   104  C    6.000000
   105  C    6.000000
   106  C    6.000000
   107  C    6.000000
   108  C    6.000000
   109  C    6.000000
   110  C    6.000000
   111  N    7.000000
   112  C    6.000000
   113  C    6.000000
   114  C    6.000000
   115  C    6.000000
   116  C    6.000000
   117  C    6.000000
   118  O    8.000000
   119  C    6.000000
   120  C    6.000000
   121  O    8.000000
   122  O    8.000000
   123  C    6.000000
   124  H    1.000000
   125  H    1.000000
   126  H    1.000000
   127  H    1.000000
   128  H    1.000000
   129  H    1.000000
   130  H    1.000000
   131  H    1.000000
   132  H    1.000000
   133  H    1.000000
   134  H    1.000000
   135  H    1.000001
   136  H    1.000000
   137  H    1.000000
   138  H    1.000000
   139  H    1.000000
   140  H    1.000000
   141  H    1.000000
   142  H    1.000000
   143  H    1.000000
   144  H    1.000000
   145  H    1.000000
   146  H    1.000000
   147  H    1.000000
   148  H    1.000000
   149  H    1.000000
   150  H    1.000000
   151  H    1.000000
   152  H    1.000000
   153  H    1.000000
   154  H    1.000000
   155  H    1.000000
   156  H    1.000000
   157  H    1.000000
   158  H    1.000000
 Sum of Mulliken charges = 624.00000

 Dipole moment (field-independent basis, Debye):
    X=              0.0000    Y=             -0.0001    Z=              0.0000  Tot=              0.0001
 Quadrupole moment (field-independent basis, Debye-Ang):
   XX=             -0.0005   YY=             -0.0001   ZZ=              0.0001
   XY=              0.0000   XZ=             -0.0005   YZ=              0.0000

 Normal termination of Gaussian 16 at Thu Oct 14 15:56:15 2021.
