 Gaussian 16, Revision A.03,
 Gaussian 16:  ES64L-G16RevA.03 25-Dec-2016

 --------------------------------------------------------
 #p PBE1PBE/Def2SVP td=(nstates=5) density=(transition=1)
 --------------------------------------------------------

 --------------------------------
 TDDFT excited states in gaussian
 --------------------------------
 Symbolic Z-matrix:
 Charge =  0 Multiplicity = 1

                         Standard orientation:
 ---------------------------------------------------------------------
 Center     Atomic      Atomic             Coordinates (Angstroms)
 Number     Number       Type             X           Y           Z
 ---------------------------------------------------------------------
      1         12           0      -11.809751   -0.044306   -0.190939
      2          6           0       -8.626616   -0.531359    1.143223
      3          6           0      -11.381833    3.360572    0.138106
      4          6           0      -14.782676    0.186540   -1.560875
      5          6           0      -11.682343   -3.464686   -1.442860
      6          7           0      -10.116017    1.263417    0.656264
      7          6           0       -8.896183    0.855907    1.118396
      8          6           0       -8.096520    2.013458    1.601462
      9          6           0       -8.977388    3.273133    1.232634
     10          6           0      -10.283865    2.630217    0.623048
     11          6           0       -9.158806    4.296175    2.382121
     12          6           0       -6.689715    2.088471    0.959819
     13          6           0       -5.610505    2.212675    2.033940
     14          1           0       -4.594036    3.386475    1.899819
     15          7           0      -12.945818    1.566010   -0.620674
     16          6           0      -12.640667    2.904858   -0.380059
     17          6           0      -13.830105    3.650029   -0.771713
     18          6           0      -14.874753    2.729464   -1.248572
     19          6           0      -14.251430    1.376827   -1.096536
     20          6           0      -13.860644    5.094469   -0.838799
     21          6           0      -16.122822    3.206498   -1.867449
     22          8           0      -16.428366    4.375719   -1.974661
     23          6           0      -17.116379    2.314585   -2.526390
     24          7           0      -12.969362   -1.393991   -1.330066
     25          6           0      -14.298165   -1.118053   -1.530569
     26          6           0      -14.968942   -2.274167   -2.241961
     27          6           0      -13.849324   -3.174042   -2.610609
     28          6           0      -12.749117   -2.649694   -1.829468
     29          6           0      -16.174443   -2.937522   -1.458031
     30          6           0      -13.428878   -3.052028   -4.115515
     31          6           0      -12.871531   -4.247278   -4.738843
     32          7           0      -10.466669   -1.720485   -0.157539
     33          6           0      -10.566621   -3.034578   -0.633009
     34          6           0       -9.517387   -3.818155   -0.060308
     35          6           0       -8.710048   -2.900484    0.601366
     36          6           0       -9.314362   -1.598183    0.483167
     37          6           0       -9.378011   -5.283315   -0.251815
     38          6           0       -7.504360   -2.749722    1.314236
     39          8           0       -6.676382   -3.575123    1.629191
     40          6           0       -7.424859   -1.265219    1.734872
     41          6           0       -7.304081   -1.186919    3.199366
     42          8           0       -8.250174   -1.186282    4.004915
     43          8           0       -5.978242   -1.275078    3.556929
     44          6           0       -5.581688   -1.122043    4.947287
     45          1           0      -11.202477    4.420146    0.329123
     46          1           0      -15.738502    0.124305   -2.087074
     47          1           0      -11.699856   -4.490788   -1.816098
     48          1           0       -8.204455    1.977031    2.685859
     49          1           0       -8.541990    3.895191    0.451207
     50          1           0       -8.339994    4.036149    3.054058
     51          1           0      -10.142708    4.337099    2.849533
     52          1           0       -8.980217    5.304996    2.010783
     53          1           0       -6.523721    2.980579    0.356203
     54          1           0       -6.580978    1.184006    0.361580
     55          1           0       -5.036547    1.314278    1.807363
     56          1           0       -6.107816    2.144335    3.000344
     57          1           0      -12.899063    5.467805   -0.485897
     58          1           0      -14.579226    5.588495   -0.184140
     59          1           0      -13.980622    5.404568   -1.877443
     60          1           0      -17.199151    1.550242   -1.753692
     61          1           0      -16.671872    1.910714   -3.436389
     62          1           0      -18.064102    2.828637   -2.688072
     63          1           0      -15.418340   -1.796410   -3.111752
     64          1           0      -13.909384   -4.217003   -2.299433
     65          1           0      -16.450610   -2.329191   -0.596570
     66          1           0      -16.048954   -3.997026   -1.232146
     67          1           0      -17.119812   -2.878575   -1.996673
     68          1           0      -12.729447   -2.223118   -4.224861
     69          1           0      -14.284921   -2.778722   -4.732239
     70          1           0      -13.692087   -4.852254   -5.126107
     71          1           0      -12.236302   -4.812600   -4.056136
     72          1           0      -12.385392   -3.978048   -5.677100
     73          1           0      -10.349800   -5.776633   -0.238350
     74          1           0       -8.702102   -5.760384    0.458050
     75          1           0       -9.038014   -5.373373   -1.283553
     76          1           0       -6.493149   -0.787811    1.431099
     77          1           0       -5.803322   -1.922558    5.653162
     78          1           0       -5.967066   -0.178466    5.333080
     79          1           0       -4.492997   -1.117236    4.909172
     80         12           0       11.650378    0.113880   -0.516336
     81          6           0        8.811774    0.672147    1.637842
     82          6           0       11.627174   -3.204740    0.616602
     83          6           0       14.158875   -0.446643   -2.559165
     84          6           0       11.689447    3.526563   -1.273433
     85          7           0       10.320897   -1.091895    1.018424
     86          6           0        9.139406   -0.721656    1.579005
     87          6           0        8.384806   -1.909492    2.153523
     88          6           0        9.477443   -3.118061    2.128363
     89          6           0       10.551953   -2.441178    1.229144
     90          6           0        9.946209   -3.605751    3.522139
     91          6           0        7.075309   -2.235878    1.358998
     92          6           0        5.791978   -2.230162    2.229460
     93          1           0        5.058857   -3.689172    2.331051
     94          7           0       12.703688   -1.540494   -0.907269
     95          6           0       12.615410   -2.858039   -0.342965
     96          6           0       13.594827   -3.811086   -0.916519
     97          6           0       14.270638   -2.986240   -1.874343
     98          6           0       13.721309   -1.621643   -1.807283
     99          6           0       13.752961   -5.271694   -0.489211
    100          6           0       15.415259   -3.337210   -2.746635
    101          8           0       15.808547   -2.683448   -3.706675
    102          6           0       16.095093   -4.703193   -2.528399
    103          7           0       12.619243    1.319907   -1.838017
    104          6           0       13.663424    0.866143   -2.568300
    105          6           0       14.431355    1.968645   -3.242910
    106          6           0       13.642859    3.254890   -2.893831
    107          6           0       12.529546    2.691095   -1.982377
    108          6           0       15.911143    1.998516   -2.922801
    109          6           0       13.009817    3.930587   -4.247995
    110          6           0       13.373447    5.494945   -4.490536
    111          7           0       10.671543    1.839027    0.249775
    112          6           0       10.764224    3.161078   -0.248059
    113          6           0        9.747003    3.967087    0.436597
    114          6           0        8.914953    2.992910    1.048443
    115          6           0        9.575413    1.764007    1.008919
    116          6           0        9.542583    5.478971    0.452565
    117          6           0        7.757211    2.887961    1.980853
    118          8           0        6.970191    3.705906    2.533131
    119          6           0        7.608870    1.344404    2.271228
    120          6           0        7.557832    1.143585    3.757131
    121          8           0        8.285128    1.689132    4.538034
    122          8           0        6.491578    0.348701    4.074472
    123          6           0        6.170925    0.379836    5.523874
    124          1           0       11.661100   -4.183392    1.099440
    125          1           0       14.992894   -0.566864   -3.254150
    126          1           0       11.658263    4.588794   -1.523772
    127          1           0        8.185251   -1.661453    3.196030
    128          1           0        9.129214   -3.984097    1.564855
    129          1           0       11.003271   -3.386274    3.675146
    130          1           0        9.770368   -4.676843    3.630013
    131          1           0        9.388912   -3.217102    4.374506
    132          1           0        7.121384   -3.219978    0.891880
    133          1           0        6.895039   -1.509854    0.565775
    134          1           0        4.974797   -1.662663    1.783433
    135          1           0        5.903627   -1.787825    3.218897
    136          1           0       12.923429   -5.721340    0.057408
    137          1           0       14.663128   -5.502907    0.064087
    138          1           0       13.835545   -5.826659   -1.424257
    139          1           0       16.522178   -4.758819   -1.527134
    140          1           0       16.845253   -4.919640   -3.289748
    141          1           0       15.329813   -5.473702   -2.621869
    142          1           0       14.433210    1.767339   -4.315013
    143          1           0       14.257311    3.954310   -2.327709
    144          1           0       16.541823    1.673798   -3.750843
    145          1           0       16.225565    1.325219   -2.125444
    146          1           0       16.165269    3.012382   -2.612922
    147          1           0       11.923168    3.875078   -4.304125
    148          1           0       13.342568    3.431293   -5.157604
    149          1           0       14.272607    5.677635   -3.901788
    150          1           0       12.559325    6.153374   -4.184803
    151          1           0       13.701592    5.672272   -5.514400
    152          1           0        8.491599    5.751310    0.547354
    153          1           0        9.804569    5.851055   -0.538583
    154          1           0       10.265484    5.822859    1.192472
    155          1           0        6.619487    1.072350    1.904396
    156          1           0        7.083719    0.127043    6.062981
    157          1           0        5.490931   -0.462655    5.649086
    158          1           0        5.807713    1.305872    5.969475
 ---------------------------------------------------------------------

 SCF Done:  E(RPBE1PBE) =  -4067.34126122     A.U. after   16 cycles

 Excitation energies and oscillator strengths:

 Excited State   1:      Singlet-A      1.8269 eV  678.65 nm  f=0.3399  <S**2>=0.000
     310 -> 316       -0.18271
     312 -> 314        0.69131
     312 <- 314       -0.10665
 This state for optimization and/or second-order correction.
 Total Energy, E(TD-HF/TD-DFT) =  -4067.27412261
 Copying the excited state density for this state as the 1-particle RhoCI density.

 Excited State   2:      Singlet-A      1.8372 eV  674.85 nm  f=0.3686  <S**2>=0.000
     309 -> 315       -0.18240
     311 -> 313        0.68973
     311 <- 313       -0.10420

 Excited State   3:      Singlet-A      1.8402 eV  673.75 nm  f=0.0000  <S**2>=0.000
     312 -> 313        0.70710

 Excited State   4:      Singlet-A      1.9647 eV  631.04 nm  f=0.0000  <S**2>=0.000
     311 -> 314        0.70709

 Excited State   5:      Singlet-A      2.1726 eV  570.68 nm  f=0.1363  <S**2>=0.000
     310 -> 314        0.65686
     312 -> 316        0.25509

 The electronic state is 1-A.
 Alpha  occ. eigenvalues --  -46.92277 -46.91955 -19.26279 -19.25466 -19.19947
 Alpha  occ. eigenvalues --  -19.19530 -19.19053 -19.19026 -19.18587 -19.17549
 Alpha  occ. eigenvalues --  -14.41939 -14.41783 -14.41580 -14.41409 -14.40295
 Alpha  occ. eigenvalues --  -14.39877 -14.39003 -14.38811 -10.36039 -10.35831
 Alpha  occ. eigenvalues --  -10.32423 -10.32102 -10.31311 -10.30764 -10.29433
 Alpha  occ. eigenvalues --  -10.29276 -10.29270 -10.29140 -10.29134 -10.29074
 Alpha  occ. eigenvalues --  -10.29073 -10.29029 -10.28833 -10.28681 -10.28676
 Alpha  occ. eigenvalues --  -10.28667 -10.28473 -10.28207 -10.28075 -10.27930
 Alpha  occ. eigenvalues --  -10.27655 -10.26859 -10.26835 -10.26789 -10.26770
 Alpha  occ. eigenvalues --  -10.26416 -10.26392 -10.26388 -10.26359 -10.26353
 Alpha  occ. eigenvalues --  -10.26132 -10.26096 -10.26086 -10.25992 -10.25908
 Alpha  occ. eigenvalues --  -10.25781 -10.25701 -10.25661 -10.25641 -10.25599
 Alpha  occ. eigenvalues --  -10.25451 -10.25400 -10.25103 -10.25009 -10.25001
 Alpha  occ. eigenvalues --  -10.24962 -10.24892 -10.24886 -10.24720 -10.24701
 Alpha  occ. eigenvalues --  -10.24542 -10.24259 -10.24071 -10.23971 -10.23902
 Alpha  occ. eigenvalues --  -10.23870 -10.23684 -10.23667 -10.23435 -10.23206
 Alpha  occ. eigenvalues --  -10.23078 -10.22989 -10.22961 -10.22472 -10.22437
 Alpha  occ. eigenvalues --  -10.22208  -3.14349  -3.14174  -1.87192  -1.87013
 Alpha  occ. eigenvalues --   -1.86731  -1.86561  -1.86549  -1.86419  -1.11713
 Alpha  occ. eigenvalues --   -1.10152  -1.04808  -1.04554  -1.04531  -1.03497
 Alpha  occ. eigenvalues --   -1.01889  -1.01446  -0.99553  -0.98648  -0.98426
 Alpha  occ. eigenvalues --   -0.97839  -0.97583  -0.97240  -0.96616  -0.96125
 Alpha  occ. eigenvalues --   -0.86977  -0.85934  -0.85077  -0.83783  -0.83340
 Alpha  occ. eigenvalues --   -0.82890  -0.82759  -0.82300  -0.82009  -0.81704
 Alpha  occ. eigenvalues --   -0.81565  -0.81224  -0.80510  -0.80075  -0.79484
 Alpha  occ. eigenvalues --   -0.78826  -0.78221  -0.77683  -0.77474  -0.76751
 Alpha  occ. eigenvalues --   -0.76066  -0.75693  -0.75477  -0.75112  -0.74994
 Alpha  occ. eigenvalues --   -0.73962  -0.73248  -0.72980  -0.72239  -0.71469
 Alpha  occ. eigenvalues --   -0.71358  -0.71093  -0.70576  -0.70304  -0.69697
 Alpha  occ. eigenvalues --   -0.69579  -0.67828  -0.67030  -0.66445  -0.65838
 Alpha  occ. eigenvalues --   -0.63760  -0.63477  -0.63441  -0.63153  -0.62289
 Alpha  occ. eigenvalues --   -0.61937  -0.61799  -0.61499  -0.60897  -0.60370
 Alpha  occ. eigenvalues --   -0.60358  -0.59998  -0.59764  -0.59230  -0.58982
 Alpha  occ. eigenvalues --   -0.58550  -0.56941  -0.56569  -0.55275  -0.55259
 Alpha  occ. eigenvalues --   -0.54036  -0.53955  -0.53854  -0.53595  -0.53307
 Alpha  occ. eigenvalues --   -0.52941  -0.52499  -0.52463  -0.51805  -0.51723
 Alpha  occ. eigenvalues --   -0.50947  -0.50683  -0.50345  -0.50007  -0.49865
 Alpha  occ. eigenvalues --   -0.49693  -0.49467  -0.49057  -0.48966  -0.48769
 Alpha  occ. eigenvalues --   -0.48384  -0.47941  -0.47858  -0.47429  -0.47271
 Alpha  occ. eigenvalues --   -0.47051  -0.46888  -0.46712  -0.46648  -0.46444
 Alpha  occ. eigenvalues --   -0.46292  -0.46259  -0.46228  -0.46045  -0.45994
 Alpha  occ. eigenvalues --   -0.45931  -0.45774  -0.45429  -0.45078  -0.44958
 Alpha  occ. eigenvalues --   -0.44696  -0.44603  -0.44522  -0.44347  -0.44149
 Alpha  occ. eigenvalues --   -0.44062  -0.43892  -0.43720  -0.43711  -0.43443
 Alpha  occ. eigenvalues --   -0.43262  -0.43189  -0.43060  -0.42945  -0.42785
 Alpha  occ. eigenvalues --   -0.42625  -0.42266  -0.42260  -0.42055  -0.41794
 Alpha  occ. eigenvalues --   -0.41690  -0.41675  -0.41571  -0.41448  -0.41224
 Alpha  occ. eigenvalues --   -0.41185  -0.40986  -0.40918  -0.40841  -0.40718
 Alpha  occ. eigenvalues --   -0.40454  -0.40315  -0.40039  -0.39727  -0.39711
 Alpha  occ. eigenvalues --   -0.39641  -0.39489  -0.39281  -0.39237  -0.39197
 Alpha  occ. eigenvalues --   -0.38887  -0.38837  -0.38742  -0.38477  -0.38444
 Alpha  occ. eigenvalues --   -0.38171  -0.38092  -0.38041  -0.37847  -0.37772
 Alpha  occ. eigenvalues --   -0.37682  -0.37435  -0.37345  -0.37083  -0.36916
 Alpha  occ. eigenvalues --   -0.36759  -0.36573  -0.36376  -0.36313  -0.36126
 Alpha  occ. eigenvalues --   -0.36108  -0.36007  -0.35667  -0.35593  -0.35535
 Alpha  occ. eigenvalues --   -0.35354  -0.35133  -0.35116  -0.34460  -0.34046
 Alpha  occ. eigenvalues --   -0.33535  -0.33441  -0.33233  -0.32624  -0.32497
 Alpha  occ. eigenvalues --   -0.32264  -0.32238  -0.31959  -0.31439  -0.31340
 Alpha  occ. eigenvalues --   -0.31189  -0.30608  -0.29722  -0.29481  -0.29349
 Alpha  occ. eigenvalues --   -0.28879  -0.28573  -0.28178  -0.27124  -0.26985
 Alpha  occ. eigenvalues --   -0.25985  -0.25688  -0.25655  -0.25555  -0.25445
 Alpha  occ. eigenvalues --   -0.25011  -0.25006  -0.24287  -0.21218  -0.20833
 Alpha  occ. eigenvalues --   -0.19179  -0.18910
 Alpha virt. eigenvalues --   -0.11571  -0.11388  -0.05925  -0.05305  -0.04060
 Alpha virt. eigenvalues --   -0.03903  -0.02367  -0.02006  -0.00108  -0.00007
 Alpha virt. eigenvalues --    0.00059   0.00717   0.00806   0.01023   0.01291

 Mulliken charges:
               1
     1  Mg  12.000070
     2  C    5.999501
     3  C    5.999947
     4  C    6.000657
     5  C    6.000076
     6  N    6.999774
     7  C    6.000542
     8  C    5.999627
     9  C    6.000119
    10  C    5.999560
    11  C    6.000177
    12  C    6.000099
    13  C    6.000508
    14  H    0.998600
    15  N    7.000155
    16  C    5.999310
    17  C    5.999515
    18  C    5.999948
    19  C    5.999177
    20  C    6.000217
    21  C    5.999876
    22  O    7.999757
    23  C    5.999986
    24  N    7.000028
    25  C    5.999369
    26  C    6.000084
    27  C    5.999839
    28  C    6.000671
    29  C    5.999965
    30  C    5.999780
    31  C    5.999924
    32  N    6.999932
    33  C    6.000688
    34  C    6.000654
    35  C    5.999982
    36  C    6.000633
    37  C    5.999977
    38  C    6.000352
    39  O    8.000737
    40  C    5.999880
    41  C    6.000032
    42  O    8.000335
    43  O    7.999892
    44  C    6.000033
    45  H    0.999539
    46  H    1.000005
    47  H    1.000519
    48  H    1.000052
    49  H    0.999708
    50  H    0.999426
    51  H    1.000234
    52  H    0.999753
    53  H    0.999808
    54  H    1.000024
    55  H    0.999817
    56  H    1.000202
    57  H    0.999495
    58  H    0.999626
    59  H    0.999615
    60  H    0.999933
    61  H    0.999854
    62  H    0.999933
    63  H    1.000116
    64  H    1.000148
    65  H    1.000081
    66  H    0.999962
    67  H    1.000138
    68  H    1.000017
    69  H    1.000411
    70  H    1.000316
    71  H    0.999941
    72  H    1.000170
    73  H    1.000524
    74  H    1.000447
    75  H    1.000518
    76  H    0.999767
    77  H    1.000354
    78  H    0.999928
    79  H    0.999632
    80  Mg  12.004069
    81  C    5.975421
    82  C    5.997480
    83  C    6.028987
    84  C    5.997353
    85  N    6.982566
    86  C    6.032123
    87  C    5.990269
    88  C    6.011142
    89  C    5.972947
    90  C    6.002359
    91  C    5.998804
    92  C    5.997918
    93  H    1.006437
    94  N    7.002846
    95  C    5.969684
    96  C    5.975871
    97  C    5.987444
    98  C    5.973737
    99  C    6.003161
   100  C    5.988271
   101  O    7.968967
   102  C    6.003788
   103  N    7.008766
   104  C    5.964271
   105  C    6.008655
   106  C    5.989385
   107  C    6.028643
   108  C    6.000568
   109  C    5.995496
   110  C    5.999274
   111  N    6.998087
   112  C    6.036638
   113  C    6.030427
   114  C    6.002301
   115  C    6.028354
   116  C    6.001567
   117  C    6.011791
   118  O    8.029045
   119  C    6.003518
   120  C    6.006939
   121  O    8.000036
   122  O    8.001714
   123  C    5.998421
   124  H    0.986801
   125  H    0.998457
   126  H    1.012380
   127  H    0.997495
   128  H    0.999145
   129  H    1.000545
   130  H    0.996608
   131  H    0.987172
   132  H    1.007964
   133  H    0.995451
   134  H    0.997080
   135  H    0.998138
   136  H    0.985374
   137  H    0.981800
   138  H    0.985234
   139  H    0.992668
   140  H    0.986365
   141  H    0.994928
   142  H    1.001742
   143  H    1.003391
   144  H    1.002658
   145  H    1.005393
   146  H    0.991372
   147  H    0.999221
   148  H    1.011591
   149  H    1.003705
   150  H    0.997486
   151  H    1.006022
   152  H    1.013853
   153  H    1.015002
   154  H    1.015830
   155  H    1.004528
   156  H    1.004279
   157  H    1.004707
   158  H    1.000078
 Sum of Mulliken charges = 624.00000

 Dipole moment (field-independent basis, Debye):
    X=             -4.7219    Y=              8.5763    Z=              1.5031  Tot=              9.9050
 Quadrupole moment (field-independent basis, Debye-Ang):
   XX=           -111.1497   YY=              1.3665   ZZ=             -0.1822
   XY=            106.7469   XZ=             18.6794   YZ=             -3.3191

 Normal termination of Gaussian 16 at Thu Oct 14 20:39:52 2021.
