 Gaussian 16, Revision A.03,
 Gaussian 16:  ES64L-G16RevA.03 25-Dec-2016

 --------------------------------------------------------
 #p PBE1PBE/Def2SVP td=(nstates=5) density=(transition=1)
 --------------------------------------------------------

 --------------------------------
 TDDFT excited states in gaussian
 --------------------------------
 Symbolic Z-matrix:
 Charge =  0 Multiplicity = 1

                         Standard orientation:
 ---------------------------------------------------------------------
 Center     Atomic      Atomic             Coordinates (Angstroms)
 Number     Number       Type             X           Y           Z
 ---------------------------------------------------------------------
      1         12           0       27.878522   -0.767583    0.157004
      2          6           0       26.233924    2.150446    1.163654
      3          6           0       30.060005    1.296747   -1.580139
      4          6           0       29.152432   -3.468346   -1.129191
      5          6           0       25.379420   -2.638467    1.829716
      6          7           0       27.882146    1.497778   -0.505555
      7          6           0       27.222870    2.447063    0.166484
      8          6           0       27.724615    3.770360   -0.306580
      9          6           0       28.644040    3.445978   -1.509494
     10          6           0       28.926064    1.991085   -1.190817
     11          6           0       28.138328    3.665777   -2.936346
     12          6           0       28.488227    4.540543    0.817063
     13          6           0       28.121706    6.034040    1.095830
     14          1           0       27.594048    6.919485   -0.075906
     15          7           0       29.527303   -1.056964   -1.084582
     16          6           0       30.382258   -0.053711   -1.521270
     17          6           0       31.446949   -0.701963   -2.215375
     18          6           0       31.148400   -2.123366   -2.220509
     19          6           0       29.919610   -2.297622   -1.460511
     20          6           0       32.601729    0.030894   -2.932664
     21          6           0       31.889595   -3.294533   -2.927276
     22          8           0       31.546995   -4.433428   -2.883037
     23          6           0       33.165805   -2.927112   -3.658492
     24          7           0       27.324166   -2.742601    0.358786
     25          6           0       27.988162   -3.688012   -0.343131
     26          6           0       27.457995   -5.130542   -0.115963
     27          6           0       26.416297   -4.856418    1.052216
     28          6           0       26.361865   -3.335424    1.132569
     29          6           0       26.839718   -5.742943   -1.501362
     30          6           0       26.737231   -5.623661    2.373255
     31          6           0       27.464863   -4.870806    3.472668
     32          7           0       26.141170   -0.398534    1.328689
     33          6           0       25.299593   -1.244034    1.999832
     34          6           0       24.291658   -0.408632    2.742459
     35          6           0       24.641536    0.924378    2.429602
     36          6           0       25.755408    0.906615    1.526284
     37          6           0       23.070645   -0.880574    3.484209
     38          6           0       24.293660    2.326738    2.645080
     39          8           0       23.369084    2.784135    3.322961
     40          6           0       25.400619    3.133370    1.972740
     41          6           0       24.700424    4.147324    1.114082
     42          8           0       24.194209    3.919345    0.030669
     43          8           0       24.591881    5.235756    1.858102
     44          6           0       23.614725    6.240420    1.469068
     45          1           0       30.658421    1.927124   -2.240473
     46          1           0       29.670026   -4.390446   -1.400590
     47          1           0       24.618025   -3.216860    2.357746
     48          1           0       26.871158    4.378912   -0.603849
     49          1           0       29.499319    4.116039   -1.421251
     50          1           0       27.140932    4.094311   -3.036237
     51          1           0       28.151129    2.726237   -3.489502
     52          1           0       28.850331    4.344598   -3.405243
     53          1           0       29.572304    4.459147    0.740795
     54          1           0       28.199154    3.926923    1.670185
     55          1           0       29.059859    6.460058    1.453701
     56          1           0       27.381319    6.065677    1.894752
     57          1           0       32.720339   -0.267645   -3.974298
     58          1           0       33.576407   -0.227353   -2.518355
     59          1           0       32.538121    1.119224   -2.896021
     60          1           0       33.856332   -2.352028   -3.041256
     61          1           0       32.888777   -2.408315   -4.576295
     62          1           0       33.640584   -3.820711   -4.063623
     63          1           0       28.237881   -5.815176    0.216985
     64          1           0       25.415023   -5.222503    0.825649
     65          1           0       25.762767   -5.753369   -1.332987
     66          1           0       27.077925   -6.795606   -1.655470
     67          1           0       26.993907   -5.109724   -2.375798
     68          1           0       27.454943   -6.383038    2.062560
     69          1           0       25.863807   -6.127573    2.786640
     70          1           0       28.244752   -4.322367    2.942974
     71          1           0       27.838624   -5.694853    4.079958
     72          1           0       26.959548   -4.095808    4.048408
     73          1           0       22.813972   -1.939397    3.449486
     74          1           0       22.194987   -0.356781    3.100587
     75          1           0       23.203251   -0.518865    4.503370
     76          1           0       25.974680    3.770916    2.645405
     77          1           0       22.929269    6.045794    0.644841
     78          1           0       24.245029    7.058144    1.118226
     79          1           0       23.286050    6.759436    2.369539
     80         12           0      -28.008869   -0.470089   -0.125310
     81          6           0      -26.257968    2.173511   -1.545237
     82          6           0      -28.841090    1.621806    2.464000
     83          6           0      -29.531144   -3.149903    1.429096
     84          6           0      -26.672944   -2.675963   -2.470518
     85          7           0      -27.664751    1.675361    0.326179
     86          6           0      -27.029418    2.590408   -0.425666
     87          6           0      -27.150310    4.046004    0.082522
     88          6           0      -27.790501    3.811787    1.517501
     89          6           0      -28.103035    2.239267    1.489497
     90          6           0      -26.767307    4.272264    2.616139
     91          6           0      -28.101531    4.832619   -0.957990
     92          6           0      -27.531212    6.148805   -1.563785
     93          1           0      -26.369473    6.790276   -0.721989
     94          7           0      -28.983792   -0.793914    1.708078
     95          6           0      -29.298250    0.248613    2.604154
     96          6           0      -30.208774   -0.260756    3.607356
     97          6           0      -30.380647   -1.629405    3.364501
     98          6           0      -29.674864   -1.919661    2.061737
     99          6           0      -30.559900    0.562580    4.854755
    100          6           0      -31.172155   -2.659162    4.213623
    101          8           0      -31.295043   -3.868305    3.942554
    102          6           0      -31.932784   -2.148703    5.449548
    103          7           0      -27.994660   -2.613957   -0.469710
    104          6           0      -28.789613   -3.489702    0.330756
    105          6           0      -28.523680   -4.959497   -0.056284
    106          6           0      -27.831032   -4.763426   -1.484841
    107          6           0      -27.513852   -3.245056   -1.503754
    108          6           0      -27.714996   -5.634070    1.039487
    109          6           0      -28.819608   -5.140918   -2.667325
    110          6           0      -30.267594   -4.572032   -2.852511
    111          7           0      -26.686564   -0.350994   -1.630771
    112          6           0      -26.203827   -1.323796   -2.511537
    113          6           0      -25.312044   -0.709166   -3.440564
    114          6           0      -25.329509    0.641450   -3.142574
    115          6           0      -26.096648    0.821463   -1.965104
    116          6           0      -24.469686   -1.392455   -4.498352
    117          6           0      -24.821817    1.894781   -3.538856
    118          8           0      -24.015286    2.108950   -4.386869
    119          6           0      -25.316602    2.921378   -2.437613
    120          6           0      -24.081546    3.376588   -1.710558
    121          8           0      -23.780055    3.014440   -0.592503
    122          8           0      -23.408546    4.189033   -2.533978
    123          6           0      -22.022270    4.339991   -2.165093
    124          1           0      -29.179426    2.298424    3.251205
    125          1           0      -29.805834   -4.006335    2.047314
    126          1           0      -26.236729   -3.356096   -3.205798
    127          1           0      -26.212315    4.598622    0.132631
    128          1           0      -28.742072    4.317541    1.682898
    129          1           0      -26.669717    3.599387    3.468416
    130          1           0      -27.235715    5.217511    2.888904
    131          1           0      -25.837966    4.508716    2.098500
    132          1           0      -29.071904    4.952096   -0.476571
    133          1           0      -28.295498    4.144619   -1.781236
    134          1           0      -28.422944    6.774672   -1.569225
    135          1           0      -27.166798    6.064841   -2.587200
    136          1           0      -30.281045   -0.037762    5.721110
    137          1           0      -31.642018    0.688281    4.910669
    138          1           0      -30.045711    1.522627    4.822174
    139          1           0      -31.182690   -1.922326    6.208446
    140          1           0      -32.481782   -3.009916    5.829989
    141          1           0      -32.682057   -1.420055    5.141065
    142          1           0      -29.514332   -5.380147   -0.231248
    143          1           0      -27.002895   -5.462955   -1.592744
    144          1           0      -27.890209   -5.205762    2.026514
    145          1           0      -26.648443   -5.564378    0.826914
    146          1           0      -28.006203   -6.678721    1.147104
    147          1           0      -28.879531   -6.228439   -2.710996
    148          1           0      -28.303061   -4.741023   -3.539923
    149          1           0      -30.957247   -5.209627   -2.299199
    150          1           0      -30.465107   -4.632654   -3.923392
    151          1           0      -30.399002   -3.511520   -2.635329
    152          1           0      -25.077073   -1.936164   -5.222153
    153          1           0      -23.865830   -2.099652   -3.930095
    154          1           0      -23.927518   -0.728373   -5.172976
    155          1           0      -25.812243    3.831157   -2.776827
    156          1           0      -21.356051    4.511972   -3.010152
    157          1           0      -21.538113    3.658193   -1.466061
    158          1           0      -21.828627    5.227271   -1.561929
 ---------------------------------------------------------------------

 SCF Done:  E(RPBE1PBE) =  -4067.37829838     A.U. after   16 cycles

 Excitation energies and oscillator strengths:

 Excited State   1:      Singlet-A      1.8556 eV  668.18 nm  f=0.3788  <S**2>=0.000
     310 -> 316        0.16971
     312 -> 313        0.69321
     312 <- 313       -0.10777
 This state for optimization and/or second-order correction.
 Total Energy, E(TD-HF/TD-DFT) =  -4067.31010804
 Copying the excited state density for this state as the 1-particle RhoCI density.

 Excited State   2:      Singlet-A      1.8764 eV  660.75 nm  f=0.3848  <S**2>=0.000
     309 -> 315        0.18231
     311 -> 314        0.69070
     311 <- 314       -0.10328

 Excited State   3:      Singlet-A      2.0070 eV  617.75 nm  f=0.0000  <S**2>=0.000
     312 -> 314        0.70711

 Excited State   4:      Singlet-A      2.0345 eV  609.41 nm  f=0.0000  <S**2>=0.000
     311 -> 313        0.70711

 Excited State   5:      Singlet-A      2.2077 eV  561.59 nm  f=0.0947  <S**2>=0.000
     309 -> 314        0.65479
     311 -> 315       -0.25273

 The electronic state is 1-A.
 Alpha  occ. eigenvalues --  -46.92174 -46.91462 -19.26803 -19.26681 -19.20166
 Alpha  occ. eigenvalues --  -19.19747 -19.19386 -19.19336 -19.18986 -19.18981
 Alpha  occ. eigenvalues --  -14.41699 -14.41383 -14.40978 -14.40924 -14.39305
 Alpha  occ. eigenvalues --  -14.38873 -14.38635 -14.38528 -10.36198 -10.36024
 Alpha  occ. eigenvalues --  -10.32429 -10.32391 -10.31789 -10.31729 -10.29207
 Alpha  occ. eigenvalues --  -10.29177 -10.28832 -10.28674 -10.28662 -10.28487
 Alpha  occ. eigenvalues --  -10.28222 -10.28197 -10.28101 -10.27726 -10.27662
 Alpha  occ. eigenvalues --  -10.27612 -10.27611 -10.27553 -10.27446 -10.27362
 Alpha  occ. eigenvalues --  -10.26944 -10.26938 -10.26824 -10.26751 -10.26364
 Alpha  occ. eigenvalues --  -10.26324 -10.26307 -10.26257 -10.25993 -10.25864
 Alpha  occ. eigenvalues --  -10.25749 -10.25653 -10.25603 -10.25573 -10.25523
 Alpha  occ. eigenvalues --  -10.25398 -10.25321 -10.25243 -10.24908 -10.24875
 Alpha  occ. eigenvalues --  -10.24833 -10.24714 -10.24709 -10.24702 -10.24319
 Alpha  occ. eigenvalues --  -10.24312 -10.24282 -10.24273 -10.24249 -10.24228
 Alpha  occ. eigenvalues --  -10.24141 -10.23944 -10.23769 -10.23749 -10.23529
 Alpha  occ. eigenvalues --  -10.23499 -10.23324 -10.23283 -10.23184 -10.22997
 Alpha  occ. eigenvalues --  -10.22908 -10.22894 -10.22770 -10.22631 -10.22454
 Alpha  occ. eigenvalues --  -10.22126  -3.14214  -3.13642  -1.87063  -1.86623
 Alpha  occ. eigenvalues --   -1.86484  -1.86397  -1.85994  -1.85888  -1.13019
 Alpha  occ. eigenvalues --   -1.12827  -1.06569  -1.06288  -1.04113  -1.03768
 Alpha  occ. eigenvalues --   -1.03346  -1.03192  -0.99594  -0.98671  -0.98391
 Alpha  occ. eigenvalues --   -0.97879  -0.97277  -0.97173  -0.96682  -0.95976
 Alpha  occ. eigenvalues --   -0.87564  -0.87001  -0.83015  -0.82923  -0.82856
 Alpha  occ. eigenvalues --   -0.82401  -0.82332  -0.82017  -0.81419  -0.81310
 Alpha  occ. eigenvalues --   -0.80799  -0.80426  -0.80357  -0.79853  -0.78742
 Alpha  occ. eigenvalues --   -0.78173  -0.77983  -0.77614  -0.76873  -0.76522
 Alpha  occ. eigenvalues --   -0.75736  -0.75470  -0.75175  -0.75107  -0.74296
 Alpha  occ. eigenvalues --   -0.74184  -0.72233  -0.72044  -0.71605  -0.71366
 Alpha  occ. eigenvalues --   -0.71328  -0.70997  -0.70591  -0.70084  -0.69498
 Alpha  occ. eigenvalues --   -0.69334  -0.67334  -0.67078  -0.66185  -0.65627
 Alpha  occ. eigenvalues --   -0.63864  -0.63307  -0.63219  -0.63053  -0.62375
 Alpha  occ. eigenvalues --   -0.62301  -0.60852  -0.60617  -0.60247  -0.59718
 Alpha  occ. eigenvalues --   -0.59442  -0.59170  -0.59055  -0.59007  -0.58868
 Alpha  occ. eigenvalues --   -0.58376  -0.57297  -0.56898  -0.54431  -0.54400
 Alpha  occ. eigenvalues --   -0.54189  -0.53910  -0.53759  -0.53526  -0.53099
 Alpha  occ. eigenvalues --   -0.52736  -0.52578  -0.52373  -0.51863  -0.51813
 Alpha  occ. eigenvalues --   -0.51387  -0.50675  -0.50575  -0.50287  -0.49493
 Alpha  occ. eigenvalues --   -0.49481  -0.49376  -0.49201  -0.49016  -0.48484
 Alpha  occ. eigenvalues --   -0.48148  -0.47832  -0.47787  -0.47745  -0.47449
 Alpha  occ. eigenvalues --   -0.47201  -0.46999  -0.46791  -0.46515  -0.46503
 Alpha  occ. eigenvalues --   -0.46362  -0.46274  -0.46193  -0.45909  -0.45743
 Alpha  occ. eigenvalues --   -0.45549  -0.45491  -0.45072  -0.44652  -0.44418
 Alpha  occ. eigenvalues --   -0.44390  -0.44279  -0.44040  -0.43958  -0.43806
 Alpha  occ. eigenvalues --   -0.43778  -0.43514  -0.43465  -0.43269  -0.43264
 Alpha  occ. eigenvalues --   -0.43068  -0.42952  -0.42817  -0.42651  -0.42585
 Alpha  occ. eigenvalues --   -0.42432  -0.42160  -0.41924  -0.41674  -0.41549
 Alpha  occ. eigenvalues --   -0.41331  -0.41134  -0.41013  -0.40918  -0.40848
 Alpha  occ. eigenvalues --   -0.40698  -0.40614  -0.40404  -0.40375  -0.40260
 Alpha  occ. eigenvalues --   -0.40246  -0.39931  -0.39731  -0.39683  -0.39650
 Alpha  occ. eigenvalues --   -0.39563  -0.39488  -0.39222  -0.39177  -0.38931
 Alpha  occ. eigenvalues --   -0.38475  -0.38452  -0.38366  -0.38136  -0.38125
 Alpha  occ. eigenvalues --   -0.38037  -0.37922  -0.37865  -0.37740  -0.37705
 Alpha  occ. eigenvalues --   -0.37542  -0.37470  -0.37235  -0.37020  -0.36857
 Alpha  occ. eigenvalues --   -0.36677  -0.36614  -0.36506  -0.36200  -0.36092
 Alpha  occ. eigenvalues --   -0.35989  -0.35685  -0.35629  -0.35557  -0.35160
 Alpha  occ. eigenvalues --   -0.35138  -0.34536  -0.34478  -0.34272  -0.34074
 Alpha  occ. eigenvalues --   -0.33269  -0.32659  -0.32453  -0.32174  -0.32128
 Alpha  occ. eigenvalues --   -0.32066  -0.31919  -0.31723  -0.31524  -0.31312
 Alpha  occ. eigenvalues --   -0.31187  -0.31185  -0.29591  -0.29444  -0.29169
 Alpha  occ. eigenvalues --   -0.29095  -0.28526  -0.28243  -0.27117  -0.26478
 Alpha  occ. eigenvalues --   -0.26124  -0.26011  -0.25567  -0.25452  -0.25404
 Alpha  occ. eigenvalues --   -0.25367  -0.25149  -0.24733  -0.20713  -0.20665
 Alpha  occ. eigenvalues --   -0.18702  -0.18591
 Alpha virt. eigenvalues --   -0.10987  -0.10977  -0.05004  -0.04903  -0.03940
 Alpha virt. eigenvalues --   -0.03614  -0.01896  -0.01612  -0.00311   0.00014
 Alpha virt. eigenvalues --    0.00566   0.01087   0.01224   0.01507   0.01632

 Mulliken charges:
               1
     1  Mg  11.999960
     2  C    6.000051
     3  C    5.999769
     4  C    6.000088
     5  C    6.000104
     6  N    7.000108
     7  C    5.999703
     8  C    6.000055
     9  C    5.999979
    10  C    6.000067
    11  C    5.999880
    12  C    5.999944
    13  C    5.999980
    14  H    0.999977
    15  N    6.999868
    16  C    6.000131
    17  C    6.000205
    18  C    5.999941
    19  C    6.000204
    20  C    5.999957
    21  C    6.000119
    22  O    8.000049
    23  C    5.999968
    24  N    6.999920
    25  C    6.000249
    26  C    5.999973
    27  C    6.000080
    28  C    6.000031
    29  C    5.999991
    30  C    6.000002
    31  C    6.000045
    32  N    7.000031
    33  C    5.999840
    34  C    5.999779
    35  C    6.000194
    36  C    5.999866
    37  C    6.000027
    38  C    5.999881
    39  O    7.999924
    40  C    5.999901
    41  C    6.000041
    42  O    7.999767
    43  O    8.000091
    44  C    6.000035
    45  H    1.000162
    46  H    0.999899
    47  H    0.999854
    48  H    1.000043
    49  H    1.000057
    50  H    1.000066
    51  H    1.000005
    52  H    1.000026
    53  H    0.999971
    54  H    1.000081
    55  H    0.999991
    56  H    1.000034
    57  H    1.000079
    58  H    1.000089
    59  H    1.000095
    60  H    1.000069
    61  H    1.000046
    62  H    1.000092
    63  H    0.999951
    64  H    0.999953
    65  H    1.000009
    66  H    1.000012
    67  H    0.999979
    68  H    0.999923
    69  H    1.000001
    70  H    0.999981
    71  H    1.000010
    72  H    1.000044
    73  H    0.999893
    74  H    0.999922
    75  H    0.999964
    76  H    1.000031
    77  H    0.999936
    78  H    0.999976
    79  H    0.999983
    80  Mg  12.002634
    81  C    5.982575
    82  C    6.011287
    83  C    6.020713
    84  C    6.003839
    85  N    6.993795
    86  C    6.027758
    87  C    5.990812
    88  C    6.008422
    89  C    5.971235
    90  C    6.003110
    91  C    5.996408
    92  C    5.997741
    93  H    1.003672
    94  N    7.004595
    95  C    5.956455
    96  C    5.983807
    97  C    5.984588
    98  C    5.962161
    99  C    6.001725
   100  C    5.987256
   101  O    7.970312
   102  C    6.005354
   103  N    7.009581
   104  C    5.967386
   105  C    6.008003
   106  C    5.989590
   107  C    6.023352
   108  C    6.003699
   109  C    5.993683
   110  C    6.003981
   111  N    6.996395
   112  C    6.028473
   113  C    6.031008
   114  C    5.999030
   115  C    6.029773
   116  C    6.000545
   117  C    6.018291
   118  O    8.027305
   119  C    6.001037
   120  C    6.002052
   121  O    8.010437
   122  O    7.999147
   123  C    5.995101
   124  H    0.989245
   125  H    0.995786
   126  H    1.011620
   127  H    0.999546
   128  H    0.999812
   129  H    1.003530
   130  H    0.995315
   131  H    0.987586
   132  H    1.011048
   133  H    0.995901
   134  H    1.003999
   135  H    0.996394
   136  H    0.984993
   137  H    0.983296
   138  H    0.983901
   139  H    0.991963
   140  H    0.985942
   141  H    0.992824
   142  H    1.001260
   143  H    1.003087
   144  H    1.008155
   145  H    0.988890
   146  H    0.995505
   147  H    1.008783
   148  H    0.994083
   149  H    1.007893
   150  H    0.998833
   151  H    1.001640
   152  H    1.018382
   153  H    1.015859
   154  H    1.012633
   155  H    1.011041
   156  H    1.002735
   157  H    1.003033
   158  H    1.007365
 Sum of Mulliken charges = 624.00000

 Dipole moment (field-independent basis, Debye):
    X=              5.9370    Y=              0.8698    Z=             -8.4659  Tot=             10.3767
 Quadrupole moment (field-independent basis, Debye-Ang):
   XX=           -324.7315   YY=              1.1013   ZZ=             -3.3078
   XY=            -27.1510   XZ=            235.6642   YZ=              5.2029

 Normal termination of Gaussian 16 at Fri Oct 15 19:14:41 2021.
