 Gaussian 16, Revision A.03,
 Gaussian 16:  ES64L-G16RevA.03 25-Dec-2016

 --------------------------------------------------------
 #p PBE1PBE/Def2SVP td=(nstates=5) density=(transition=1)
 --------------------------------------------------------

 --------------------------------
 TDDFT excited states in gaussian
 --------------------------------
 Symbolic Z-matrix:
 Charge =  0 Multiplicity = 1

                         Standard orientation:
 ---------------------------------------------------------------------
 Center     Atomic      Atomic             Coordinates (Angstroms)
 Number     Number       Type             X           Y           Z
 ---------------------------------------------------------------------
      1         12           0       32.265774   -0.154272   -0.192366
      2          6           0       29.038459   -0.045528    1.185637
      3          6           0       31.594713   -3.300389   -1.285047
      4          6           0       35.111321    0.056687   -1.790725
      5          6           0       32.305059    3.405254    0.350436
      6          7           0       30.553995   -1.496601    0.008494
      7          6           0       29.340325   -1.250352    0.585730
      8          6           0       28.375162   -2.370654    0.170123
      9          6           0       29.332093   -3.531076   -0.079665
     10          6           0       30.541119   -2.712884   -0.572369
     11          6           0       29.663131   -4.325492    1.204841
     12          6           0       27.559976   -1.978611   -1.117374
     13          6           0       25.973097   -1.763221   -0.980940
     14          1           0       25.374414   -0.386285   -1.315149
     15          7           0       33.198189   -1.418419   -1.421726
     16          6           0       32.776200   -2.689340   -1.737956
     17          6           0       33.814979   -3.331318   -2.481083
     18          6           0       34.942704   -2.449990   -2.572069
     19          6           0       34.465813   -1.193492   -1.924870
     20          6           0       33.696117   -4.789421   -3.042969
     21          6           0       36.330280   -2.827542   -3.206636
     22          8           0       36.536217   -3.943716   -3.572482
     23          6           0       37.429266   -1.878318   -3.078134
     24          7           0       33.384676    1.562167   -0.931955
     25          6           0       34.674826    1.266553   -1.218511
     26          6           0       35.630880    2.410651   -0.925378
     27          6           0       34.697781    3.569274   -0.608301
     28          6           0       33.345290    2.808932   -0.380067
     29          6           0       36.615966    2.098709    0.261284
     30          6           0       34.550696    4.774009   -1.652396
     31          6           0       35.132484    6.136278   -1.385344
     32          7           0       31.086242    1.340067    0.762393
     33          6           0       31.219708    2.726998    0.906854
     34          6           0       30.067264    3.309256    1.559899
     35          6           0       29.208639    2.247782    1.707591
     36          6           0       29.823832    1.057229    1.197764
     37          6           0       29.892930    4.736394    1.875813
     38          6           0       27.892424    1.869017    2.198317
     39          8           0       27.050832    2.546594    2.801103
     40          6           0       27.774354    0.374626    1.984615
     41          6           0       27.617531   -0.267679    3.358622
     42          8           0       28.472840   -0.114452    4.227615
     43          8           0       26.368745   -0.893124    3.497541
     44          6           0       26.139510   -1.492209    4.785122
     45          1           0       31.406636   -4.357424   -1.482862
     46          1           0       36.168892   -0.018697   -2.048287
     47          1           0       32.373874    4.463810    0.610417
     48          1           0       27.632516   -2.453751    0.964038
     49          1           0       28.886441   -4.179142   -0.833291
     50          1           0       29.468685   -5.329157    0.828374
     51          1           0       28.934180   -3.979148    1.938031
     52          1           0       30.671776   -4.218666    1.604175
     53          1           0       27.673529   -2.794792   -1.830748
     54          1           0       28.051102   -1.116842   -1.568620
     55          1           0       25.757054   -1.898762    0.079074
     56          1           0       25.367379   -2.502821   -1.503218
     57          1           0       33.944929   -4.955850   -4.090603
     58          1           0       32.655040   -5.076389   -2.891410
     59          1           0       34.302160   -5.504972   -2.486982
     60          1           0       37.231552   -0.898933   -3.514352
     61          1           0       38.309690   -2.306450   -3.557286
     62          1           0       37.780201   -1.848463   -2.047516
     63          1           0       36.299331    2.622690   -1.760501
     64          1           0       34.951350    4.004532    0.358333
     65          1           0       37.601197    1.771565   -0.070536
     66          1           0       36.129048    1.431988    0.972953
     67          1           0       36.772797    3.035276    0.798324
     68          1           0       33.579682    4.930372   -2.121036
     69          1           0       35.163071    4.310054   -2.426058
     70          1           0       35.946897    6.400895   -2.058999
     71          1           0       35.531450    6.169854   -0.371251
     72          1           0       34.287531    6.815533   -1.495988
     73          1           0       30.505747    5.307470    1.177839
     74          1           0       30.314206    4.866659    2.873041
     75          1           0       28.840370    5.015368    1.893093
     76          1           0       26.841904    0.291288    1.427964
     77          1           0       26.651419   -2.442091    4.941606
     78          1           0       25.079743   -1.678001    4.957418
     79          1           0       26.425400   -0.865823    5.629677
     80         12           0      -32.079543    0.138476   -0.552987
     81          6           0      -29.567132    0.313766    2.062553
     82          6           0      -32.760490   -2.942050    0.635105
     83          6           0      -34.242312   -0.018196   -2.898338
     84          6           0      -30.916330    3.252793   -1.771527
     85          7           0      -31.210668   -1.181340    1.265443
     86          6           0      -30.297632   -0.851265    2.195105
     87          6           0      -30.239414   -1.931624    3.291922
     88          6           0      -30.954758   -3.100553    2.467045
     89          6           0      -31.726487   -2.377523    1.444683
     90          6           0      -30.128864   -4.312173    2.068493
     91          6           0      -30.978611   -1.412204    4.537195
     92          6           0      -30.479841   -2.072348    5.856313
     93          1           0      -29.147858   -2.951476    5.945014
     94          7           0      -33.406896   -1.288934   -1.070015
     95          6           0      -33.503846   -2.555413   -0.526168
     96          6           0      -34.513671   -3.291583   -1.280580
     97          6           0      -35.015466   -2.417543   -2.276304
     98          6           0      -34.200583   -1.182113   -2.100312
     99          6           0      -34.892806   -4.680411   -1.015322
    100          6           0      -36.205896   -2.636910   -3.349064
    101          8           0      -36.628217   -1.730036   -4.012861
    102          6           0      -37.052784   -3.922185   -3.358935
    103          7           0      -32.314856    1.332398   -2.269836
    104          6           0      -33.405774    1.116726   -3.000503
    105          6           0      -33.680858    2.175554   -4.034179
    106          6           0      -32.887600    3.344785   -3.401152
    107          6           0      -31.868315    2.538288   -2.524921
    108          6           0      -33.144242    1.821221   -5.498629
    109          6           0      -33.740828    4.418262   -2.603708
    110          6           0      -35.215184    4.699541   -3.015629
    111          7           0      -30.516716    1.462674   -0.087194
    112          6           0      -30.187588    2.680718   -0.583982
    113          6           0      -29.217459    3.312204    0.190088
    114          6           0      -28.934187    2.404356    1.170209
    115          6           0      -29.738283    1.292887    1.012331
    116          6           0      -28.683701    4.727085   -0.016248
    117          6           0      -28.088836    2.246400    2.363175
    118          8           0      -27.136967    2.875725    2.800135
    119          6           0      -28.566368    0.876365    3.015924
    120          6           0      -27.382725    0.065091    3.240433
    121          8           0      -26.757640   -0.586683    2.397834
    122          8           0      -26.934275    0.361040    4.478226
    123          6           0      -25.567569   -0.078594    4.694837
    124          1           0      -32.847094   -3.996420    0.906052
    125          1           0      -34.963637   -0.123671   -3.710684
    126          1           0      -30.659047    4.252179   -2.128069
    127          1           0      -29.215963   -2.254042    3.483898
    128          1           0      -31.687929   -3.530986    3.147799
    129          1           0      -30.445844   -5.214424    2.590656
    130          1           0      -29.074464   -4.135053    2.279713
    131          1           0      -30.131409   -4.519702    0.998411
    132          1           0      -32.017450   -1.731887    4.452264
    133          1           0      -30.996834   -0.325853    4.622471
    134          1           0      -31.278092   -2.616327    6.362295
    135          1           0      -30.459163   -1.219051    6.534076
    136          1           0      -34.676366   -4.969428    0.012917
    137          1           0      -34.311646   -5.271931   -1.722962
    138          1           0      -35.953773   -4.886892   -1.157782
    139          1           0      -37.660457   -4.056138   -2.464040
    140          1           0      -36.343290   -4.712488   -3.605146
    141          1           0      -37.707725   -3.926083   -4.230614
    142          1           0      -34.768686    2.239749   -4.027729
    143          1           0      -32.313573    3.916019   -4.130323
    144          1           0      -34.001698    2.091300   -6.114586
    145          1           0      -32.910002    0.766934   -5.650104
    146          1           0      -32.291529    2.404029   -5.844838
    147          1           0      -33.184942    5.354491   -2.580216
    148          1           0      -33.830396    3.920583   -1.637937
    149          1           0      -35.887859    3.999882   -2.520151
    150          1           0      -35.181632    4.657982   -4.104880
    151          1           0      -35.520178    5.719549   -2.784399
    152          1           0      -29.513848    5.266905   -0.472442
    153          1           0      -27.863899    4.777311   -0.732244
    154          1           0      -28.410460    5.133402    0.957417
    155          1           0      -29.046433    1.138047    3.959717
    156          1           0      -25.183362    0.173695    5.682775
    157          1           0      -24.853830    0.134307    3.898832
    158          1           0      -25.520556   -1.167652    4.726936
 ---------------------------------------------------------------------

 SCF Done:  E(RPBE1PBE) =  -4067.35661016     A.U. after   16 cycles

 Excitation energies and oscillator strengths:

 Excited State   1:      Singlet-A      1.8785 eV  660.01 nm  f=0.3534  <S**2>=0.000
     309 -> 315        0.18348
     312 -> 313        0.69002
     312 <- 313       -0.10094
 This state for optimization and/or second-order correction.
 Total Energy, E(TD-HF/TD-DFT) =  -4067.28757537
 Copying the excited state density for this state as the 1-particle RhoCI density.

 Excited State   2:      Singlet-A      1.9474 eV  636.66 nm  f=0.3567  <S**2>=0.000
     310 -> 316       -0.18526
     311 -> 314        0.68730

 Excited State   3:      Singlet-A      2.0924 eV  592.56 nm  f=0.0000  <S**2>=0.000
     312 -> 314        0.70711

 Excited State   4:      Singlet-A      2.1223 eV  584.19 nm  f=0.0000  <S**2>=0.000
     311 -> 313        0.70711

 Excited State   5:      Singlet-A      2.2406 eV  553.35 nm  f=0.1512  <S**2>=0.000
     310 -> 314        0.66538
     311 -> 316        0.23009

 The electronic state is 1-A.
 Alpha  occ. eigenvalues --  -46.92749 -46.92064 -19.26647 -19.25560 -19.20758
 Alpha  occ. eigenvalues --  -19.20497 -19.19306 -19.19299 -19.19025 -19.18906
 Alpha  occ. eigenvalues --  -14.41626 -14.41578 -14.40770 -14.40732 -14.39430
 Alpha  occ. eigenvalues --  -14.39062 -14.38983 -14.38466 -10.37245 -10.35216
 Alpha  occ. eigenvalues --  -10.33937 -10.32204 -10.32176 -10.31632 -10.28864
 Alpha  occ. eigenvalues --  -10.28852 -10.28696 -10.28581 -10.28516 -10.28384
 Alpha  occ. eigenvalues --  -10.28323 -10.28228 -10.28111 -10.28030 -10.27778
 Alpha  occ. eigenvalues --  -10.27533 -10.27492 -10.27424 -10.27274 -10.26796
 Alpha  occ. eigenvalues --  -10.26731 -10.26659 -10.26509 -10.26214 -10.25975
 Alpha  occ. eigenvalues --  -10.25966 -10.25924 -10.25918 -10.25795 -10.25732
 Alpha  occ. eigenvalues --  -10.25700 -10.25672 -10.25583 -10.25365 -10.25280
 Alpha  occ. eigenvalues --  -10.25270 -10.25227 -10.25185 -10.25169 -10.25167
 Alpha  occ. eigenvalues --  -10.25115 -10.24868 -10.24813 -10.24735 -10.24538
 Alpha  occ. eigenvalues --  -10.24506 -10.24493 -10.24432 -10.24423 -10.24365
 Alpha  occ. eigenvalues --  -10.24234 -10.24068 -10.23910 -10.23724 -10.23596
 Alpha  occ. eigenvalues --  -10.23577 -10.23457 -10.23449 -10.23338 -10.23106
 Alpha  occ. eigenvalues --  -10.23106 -10.23015 -10.22990 -10.22899 -10.22760
 Alpha  occ. eigenvalues --  -10.21731  -3.14831  -3.14252  -1.87673  -1.87223
 Alpha  occ. eigenvalues --   -1.87067  -1.87040  -1.86642  -1.86476  -1.11290
 Alpha  occ. eigenvalues --   -1.10688  -1.07154  -1.06692  -1.04396  -1.03766
 Alpha  occ. eigenvalues --   -1.02980  -1.01454  -1.00436  -0.99756  -0.99363
 Alpha  occ. eigenvalues --   -0.99153  -0.98876  -0.98369  -0.97476  -0.96767
 Alpha  occ. eigenvalues --   -0.87359  -0.86794  -0.83435  -0.83251  -0.83214
 Alpha  occ. eigenvalues --   -0.82955  -0.82846  -0.82405  -0.81904  -0.81719
 Alpha  occ. eigenvalues --   -0.81437  -0.81241  -0.80167  -0.79312  -0.78837
 Alpha  occ. eigenvalues --   -0.78583  -0.78503  -0.77460  -0.76802  -0.76745
 Alpha  occ. eigenvalues --   -0.76618  -0.75893  -0.75362  -0.75168  -0.75073
 Alpha  occ. eigenvalues --   -0.74450  -0.72680  -0.72329  -0.71513  -0.71141
 Alpha  occ. eigenvalues --   -0.70973  -0.70693  -0.70569  -0.70103  -0.69583
 Alpha  occ. eigenvalues --   -0.69437  -0.67304  -0.67297  -0.66582  -0.66054
 Alpha  occ. eigenvalues --   -0.63963  -0.63393  -0.63152  -0.63012  -0.62478
 Alpha  occ. eigenvalues --   -0.62186  -0.61215  -0.61064  -0.60246  -0.60069
 Alpha  occ. eigenvalues --   -0.59912  -0.59529  -0.59392  -0.59126  -0.59013
 Alpha  occ. eigenvalues --   -0.58247  -0.57260  -0.56434  -0.55177  -0.54741
 Alpha  occ. eigenvalues --   -0.54597  -0.53994  -0.53831  -0.53722  -0.53467
 Alpha  occ. eigenvalues --   -0.52958  -0.52944  -0.52504  -0.52271  -0.52122
 Alpha  occ. eigenvalues --   -0.50995  -0.50834  -0.50660  -0.50009  -0.49802
 Alpha  occ. eigenvalues --   -0.49784  -0.49376  -0.49133  -0.48563  -0.48543
 Alpha  occ. eigenvalues --   -0.48209  -0.48123  -0.48026  -0.47676  -0.47595
 Alpha  occ. eigenvalues --   -0.47552  -0.47426  -0.47231  -0.47154  -0.46817
 Alpha  occ. eigenvalues --   -0.46732  -0.46300  -0.46068  -0.45925  -0.45738
 Alpha  occ. eigenvalues --   -0.45595  -0.45477  -0.45241  -0.45109  -0.44990
 Alpha  occ. eigenvalues --   -0.44740  -0.44733  -0.44445  -0.44270  -0.44137
 Alpha  occ. eigenvalues --   -0.43884  -0.43655  -0.43554  -0.43444  -0.43332
 Alpha  occ. eigenvalues --   -0.43295  -0.43285  -0.42990  -0.42869  -0.42728
 Alpha  occ. eigenvalues --   -0.42644  -0.42224  -0.42217  -0.42078  -0.41827
 Alpha  occ. eigenvalues --   -0.41722  -0.41446  -0.41287  -0.41012  -0.40987
 Alpha  occ. eigenvalues --   -0.40840  -0.40774  -0.40696  -0.40561  -0.40267
 Alpha  occ. eigenvalues --   -0.40114  -0.39991  -0.39827  -0.39426  -0.39202
 Alpha  occ. eigenvalues --   -0.39113  -0.39056  -0.38983  -0.38957  -0.38818
 Alpha  occ. eigenvalues --   -0.38663  -0.38626  -0.38407  -0.38366  -0.38122
 Alpha  occ. eigenvalues --   -0.38063  -0.37999  -0.37883  -0.37820  -0.37553
 Alpha  occ. eigenvalues --   -0.37391  -0.37377  -0.37222  -0.37146  -0.37053
 Alpha  occ. eigenvalues --   -0.37013  -0.36817  -0.36539  -0.36434  -0.36283
 Alpha  occ. eigenvalues --   -0.36160  -0.35996  -0.35790  -0.35578  -0.35341
 Alpha  occ. eigenvalues --   -0.35265  -0.34919  -0.34628  -0.34210  -0.33880
 Alpha  occ. eigenvalues --   -0.33602  -0.33167  -0.32983  -0.32967  -0.32454
 Alpha  occ. eigenvalues --   -0.32425  -0.32048  -0.31700  -0.31664  -0.31581
 Alpha  occ. eigenvalues --   -0.30849  -0.30691  -0.29897  -0.29688  -0.29411
 Alpha  occ. eigenvalues --   -0.28996  -0.28659  -0.27976  -0.26947  -0.26942
 Alpha  occ. eigenvalues --   -0.26566  -0.26150  -0.26102  -0.25836  -0.25564
 Alpha  occ. eigenvalues --   -0.25519  -0.25282  -0.25249  -0.21270  -0.20336
 Alpha  occ. eigenvalues --   -0.18873  -0.18656
 Alpha virt. eigenvalues --   -0.10865  -0.10760  -0.05629  -0.04633  -0.03689
 Alpha virt. eigenvalues --   -0.03611  -0.01864  -0.01818  -0.00859  -0.00435
 Alpha virt. eigenvalues --   -0.00336   0.00128   0.00770   0.01111   0.01787

 Mulliken charges:
               1
     1  Mg  11.999543
     2  C    5.978334
     3  C    6.014118
     4  C    6.017191
     5  C    5.988407
     6  N    6.995737
     7  C    6.029747
     8  C    6.000106
     9  C    6.007351
    10  C    5.968487
    11  C    6.001377
    12  C    5.999088
    13  C    6.000365
    14  H    0.994534
    15  N    7.006322
    16  C    5.961416
    17  C    5.981644
    18  C    5.988882
    19  C    5.963109
    20  C    6.002624
    21  C    5.985998
    22  O    7.982945
    23  C    6.006854
    24  N    6.998568
    25  C    5.968933
    26  C    6.008179
    27  C    5.994631
    28  C    6.033085
    29  C    6.004367
    30  C    5.990926
    31  C    6.000766
    32  N    6.998651
    33  C    6.034508
    34  C    6.028972
    35  C    5.999307
    36  C    6.032641
    37  C    5.997884
    38  C    6.020396
    39  O    8.030333
    40  C    5.996849
    41  C    6.007142
    42  O    8.002009
    43  O    8.002457
    44  C    5.997056
    45  H    0.989287
    46  H    0.991983
    47  H    1.009287
    48  H    0.995503
    49  H    0.997769
    50  H    0.999040
    51  H    0.984610
    52  H    1.001036
    53  H    1.012286
    54  H    0.999652
    55  H    0.997823
    56  H    1.004076
    57  H    0.983369
    58  H    0.984605
    59  H    0.982326
    60  H    0.990327
    61  H    0.987556
    62  H    0.990682
    63  H    1.000517
    64  H    0.999383
    65  H    1.002207
    66  H    0.996931
    67  H    0.988632
    68  H    0.999595
    69  H    1.013237
    70  H    1.005532
    71  H    1.001608
    72  H    0.998231
    73  H    1.016474
    74  H    1.018478
    75  H    1.013721
    76  H    1.009884
    77  H    1.006972
    78  H    1.004416
    79  H    1.001129
    80  Mg  11.999966
    81  C    6.000079
    82  C    5.999940
    83  C    5.999907
    84  C    6.000119
    85  N    7.000092
    86  C    5.999832
    87  C    5.999995
    88  C    5.999988
    89  C    6.000046
    90  C    5.999993
    91  C    6.000016
    92  C    6.000002
    93  H    0.999986
    94  N    6.999971
    95  C    6.000125
    96  C    6.000066
    97  C    6.000001
    98  C    6.000106
    99  C    5.999987
   100  C    6.000061
   101  O    8.000061
   102  C    6.000002
   103  N    7.000031
   104  C    6.000157
   105  C    5.999989
   106  C    6.000010
   107  C    5.999883
   108  C    6.000003
   109  C    6.000000
   110  C    5.999998
   111  N    7.000034
   112  C    5.999839
   113  C    5.999929
   114  C    5.999942
   115  C    5.999970
   116  C    6.000004
   117  C    6.000006
   118  O    7.999877
   119  C    5.999982
   120  C    6.000008
   121  O    7.999966
   122  O    7.999975
   123  C    6.000012
   124  H    1.000034
   125  H    1.000021
   126  H    0.999962
   127  H    0.999994
   128  H    1.000004
   129  H    1.000014
   130  H    1.000021
   131  H    1.000002
   132  H    0.999986
   133  H    1.000011
   134  H    1.000001
   135  H    0.999998
   136  H    1.000033
   137  H    1.000043
   138  H    1.000047
   139  H    1.000020
   140  H    1.000019
   141  H    1.000040
   142  H    1.000000
   143  H    0.999995
   144  H    1.000010
   145  H    0.999994
   146  H    1.000014
   147  H    0.999996
   148  H    0.999998
   149  H    0.999992
   150  H    0.999996
   151  H    0.999997
   152  H    0.999971
   153  H    0.999942
   154  H    0.999955
   155  H    0.999979
   156  H    0.999976
   157  H    0.999986
   158  H    0.999990
 Sum of Mulliken charges = 624.00000

 Dipole moment (field-independent basis, Debye):
    X=             -5.5761    Y=              6.8009    Z=              4.6772  Tot=              9.9610
 Quadrupole moment (field-independent basis, Debye-Ang):
   XX=           -353.5439   YY=              0.0103   ZZ=             -2.3579
   XY=            220.3315   XZ=            150.7356   YZ=             -4.1476

 Normal termination of Gaussian 16 at Fri Oct 15 16:27:27 2021.
