 Gaussian 16, Revision A.03,
 Gaussian 16:  ES64L-G16RevA.03 25-Dec-2016

 --------------------------------------------------------
 #p PBE1PBE/Def2SVP td=(nstates=5) density=(transition=1)
 --------------------------------------------------------

 --------------------------------
 TDDFT excited states in gaussian
 --------------------------------
 Symbolic Z-matrix:
 Charge =  0 Multiplicity = 1

                         Standard orientation:
 ---------------------------------------------------------------------
 Center     Atomic      Atomic             Coordinates (Angstroms)
 Number     Number       Type             X           Y           Z
 ---------------------------------------------------------------------
      1         12           0      -30.246372   -0.394681    0.009498
      2          6           0      -27.276345    1.519365   -0.277027
      3          6           0      -28.671809   -2.261761    2.367968
      4          6           0      -33.294719   -1.647140    0.845149
      5          6           0      -31.820721    1.936090   -2.015762
      6          7           0      -28.219088   -0.174332    0.983217
      7          6           0      -27.120939    0.583301    0.673145
      8          6           0      -25.930095    0.188262    1.464842
      9          6           0      -26.341596   -1.244155    2.049248
     10          6           0      -27.813156   -1.237215    1.812030
     11          6           0      -25.604053   -2.374829    1.350254
     12          6           0      -25.660661    1.313442    2.476275
     13          6           0      -24.208442    1.952701    2.494245
     14          1           0      -23.366173    2.013327    3.804059
     15          7           0      -30.947513   -1.786716    1.359014
     16          6           0      -30.091513   -2.517719    2.194427
     17          6           0      -30.866551   -3.550514    2.813780
     18          6           0      -32.240858   -3.397930    2.426972
     19          6           0      -32.192137   -2.282945    1.443622
     20          6           0      -30.206085   -4.591911    3.708025
     21          6           0      -33.446869   -4.197910    2.866092
     22          8           0      -33.154322   -5.193821    3.589317
     23          6           0      -34.953896   -3.892342    2.635201
     24          7           0      -32.314400    0.061586   -0.513101
     25          6           0      -33.385341   -0.624646   -0.056941
     26          6           0      -34.735524   -0.072978   -0.586455
     27          6           0      -34.240346    1.015661   -1.600032
     28          6           0      -32.665274    1.040151   -1.314653
     29          6           0      -35.533777   -1.198330   -1.219951
     30          6           0      -34.834325    2.379260   -1.419597
     31          6           0      -35.744321    2.800002   -2.541563
     32          7           0      -29.722045    1.228354   -1.087192
     33          6           0      -30.424286    2.095644   -1.933615
     34          6           0      -29.583330    2.922702   -2.637064
     35          6           0      -28.320503    2.709275   -2.047711
     36          6           0      -28.476686    1.733689   -1.065741
     37          6           0      -30.012387    3.723852   -3.848023
     38          6           0      -26.882703    3.074795   -2.150985
     39          8           0      -26.346225    3.820852   -2.909979
     40          6           0      -26.240233    2.336189   -0.916494
     41          6           0      -24.905574    1.790322   -1.375139
     42          8           0      -23.813383    2.282179   -1.091164
     43          8           0      -25.091284    0.607172   -2.130730
     44          6           0      -23.824506   -0.028842   -2.491274
     45          1           0      -28.123516   -3.001261    2.955739
     46          1           0      -34.282473   -2.084749    1.007900
     47          1           0      -32.274767    2.817174   -2.472608
     48          1           0      -25.068382    0.099107    0.803205
     49          1           0      -26.073866   -1.268541    3.105239
     50          1           0      -25.465306   -2.203042    0.283738
     51          1           0      -26.223643   -3.270651    1.403403
     52          1           0      -24.656124   -2.637979    1.819541
     53          1           0      -25.873559    0.909482    3.465912
     54          1           0      -26.381425    2.129798    2.429718
     55          1           0      -24.451629    2.972813    2.195908
     56          1           0      -23.623773    1.604729    1.643485
     57          1           0      -29.582616   -4.118713    4.466639
     58          1           0      -29.557087   -5.178602    3.057986
     59          1           0      -30.857843   -5.217847    4.319092
     60          1           0      -35.077699   -4.055991    1.565166
     61          1           0      -35.140471   -2.851020    2.898016
     62          1           0      -35.606490   -4.519143    3.243520
     63          1           0      -35.372343    0.359629    0.184761
     64          1           0      -34.317168    0.636155   -2.618616
     65          1           0      -35.573098   -2.018956   -0.503423
     66          1           0      -35.010961   -1.518219   -2.121874
     67          1           0      -36.525720   -0.991579   -1.619920
     68          1           0      -34.092673    3.176687   -1.373006
     69          1           0      -35.403181    2.549643   -0.505766
     70          1           0      -36.701772    3.083524   -2.106266
     71          1           0      -35.983272    1.982046   -3.221234
     72          1           0      -35.337474    3.588048   -3.176147
     73          1           0      -29.093398    3.993730   -4.369332
     74          1           0      -30.555078    4.628489   -3.574800
     75          1           0      -30.650825    3.046230   -4.414441
     76          1           0      -25.959868    3.174448   -0.277623
     77          1           0      -23.960996   -1.101741   -2.627437
     78          1           0      -23.114399    0.003648   -1.666178
     79          1           0      -23.351136    0.424350   -3.362707
     80         12           0       29.330159    0.446958    0.570681
     81          6           0       29.919638   -2.522394   -1.250127
     82          6           0       27.719733    1.735964   -2.002145
     83          6           0       29.631814    3.497169    2.080001
     84          6           0       31.992958   -0.717054    2.857551
     85          7           0       28.941449   -0.333789   -1.424244
     86          6           0       29.050484   -1.609102   -1.849654
     87          6           0       28.225677   -1.783220   -3.139983
     88          6           0       27.529325   -0.477671   -3.354406
     89          6           0       28.111310    0.413995   -2.216038
     90          6           0       27.630046    0.037794   -4.848204
     91          6           0       27.277831   -3.023331   -3.258610
     92          6           0       25.880053   -2.959231   -4.011017
     93          1           0       25.508661   -4.104430   -4.964434
     94          7           0       28.528637    2.295701    0.195495
     95          6           0       27.867363    2.629436   -0.964849
     96          6           0       27.419607    3.986978   -0.835671
     97          6           0       27.992544    4.588260    0.352052
     98          6           0       28.795655    3.472903    0.899874
     99          6           0       26.638148    4.568191   -1.943488
    100          6           0       27.791659    5.992611    0.973245
    101          8           0       28.396770    6.308425    1.944122
    102          6           0       26.667004    6.865348    0.519776
    103          7           0       30.694634    1.259751    2.212107
    104          6           0       30.450722    2.511109    2.662023
    105          6           0       31.331879    2.871700    3.900578
    106          6           0       32.065604    1.526850    4.191321
    107          6           0       31.596516    0.612978    3.032184
    108          6           0       32.292445    4.014705    3.706444
    109          6           0       31.824384    0.837252    5.579579
    110          6           0       30.557569    0.084337    5.808440
    111          7           0       30.712982   -1.221794    0.870878
    112          6           0       31.632149   -1.536895    1.830212
    113          6           0       32.114883   -2.877798    1.606585
    114          6           0       31.495673   -3.337890    0.414699
    115          6           0       30.685741   -2.267677   -0.016433
    116          6           0       33.195843   -3.591653    2.338780
    117          6           0       31.398162   -4.410776   -0.533357
    118          8           0       31.891436   -5.531350   -0.590472
    119          6           0       30.335303   -3.954655   -1.630921
    120          6           0       30.832782   -4.144498   -3.053943
    121          8           0       31.763018   -3.543182   -3.525769
    122          8           0       30.023816   -5.065380   -3.700486
    123          6           0       30.447301   -5.342924   -5.073434
    124          1           0       27.008831    2.166815   -2.710816
    125          1           0       29.634657    4.489999    2.534091
    126          1           0       32.701758   -1.106769    3.591028
    127          1           0       29.051440   -1.970686   -3.826346
    128          1           0       26.461534   -0.651590   -3.218641
    129          1           0       28.077223   -0.738418   -5.468980
    130          1           0       28.123262    1.009571   -4.827911
    131          1           0       26.642695    0.136633   -5.299662
    132          1           0       27.051915   -3.338253   -2.239547
    133          1           0       27.787567   -3.883768   -3.692896
    134          1           0       25.913346   -2.016664   -4.557789
    135          1           0       25.084326   -2.869319   -3.271437
    136          1           0       26.955915    5.608520   -2.009329
    137          1           0       25.593596    4.559844   -1.634391
    138          1           0       26.661646    4.148871   -2.949467
    139          1           0       27.137444    7.457017   -0.264449
    140          1           0       26.256067    7.392138    1.381552
    141          1           0       25.855258    6.346333    0.009601
    142          1           0       30.728559    3.039384    4.792985
    143          1           0       33.145340    1.462884    4.060186
    144          1           0       32.089392    4.553515    2.780031
    145          1           0       33.325495    3.675975    3.623545
    146          1           0       32.146493    4.666750    4.567268
    147          1           0       31.889215    1.581223    6.373633
    148          1           0       32.705235    0.235545    5.804659
    149          1           0       29.788193    0.442360    5.124077
    150          1           0       30.034745    0.137757    6.763635
    151          1           0       30.831389   -0.964599    5.690687
    152          1           0       34.167011   -3.098050    2.317350
    153          1           0       33.446086   -4.449412    1.713998
    154          1           0       32.893495   -3.854821    3.352779
    155          1           0       29.450586   -4.566723   -1.454416
    156          1           0       29.551604   -4.851761   -5.452416
    157          1           0       30.411725   -6.430632   -5.129730
    158          1           0       31.402415   -4.884161   -5.330063
 ---------------------------------------------------------------------

 SCF Done:  E(RPBE1PBE) =  -4067.36140489     A.U. after   16 cycles

 Excitation energies and oscillator strengths:

 Excited State   1:      Singlet-A      1.8206 eV  681.00 nm  f=0.0000  <S**2>=0.000
     312 -> 313        0.70711
 This state for optimization and/or second-order correction.
 Total Energy, E(TD-HF/TD-DFT) =  -4067.29449867
 Copying the excited state density for this state as the 1-particle RhoCI density.

 Excited State   2:      Singlet-A      1.8485 eV  670.72 nm  f=0.3368  <S**2>=0.000
     309 -> 315        0.16642
     311 -> 313        0.69420
     311 <- 313       -0.11257

 Excited State   3:      Singlet-A      1.8611 eV  666.20 nm  f=0.3764  <S**2>=0.000
     310 -> 316        0.17932
     312 -> 314        0.69123
     312 <- 314       -0.10764

 Excited State   4:      Singlet-A      2.1775 eV  569.39 nm  f=0.0000  <S**2>=0.000
     311 -> 314        0.70711

 Excited State   5:      Singlet-A      2.1921 eV  565.59 nm  f=0.1043  <S**2>=0.000
     310 -> 314        0.65386
     312 -> 316       -0.25419

 The electronic state is 1-A.
 Alpha  occ. eigenvalues --  -46.93387 -46.92441 -19.26317 -19.25453 -19.21293
 Alpha  occ. eigenvalues --  -19.20257 -19.20127 -19.19686 -19.18906 -19.18546
 Alpha  occ. eigenvalues --  -14.41954 -14.41748 -14.41711 -14.41242 -14.39733
 Alpha  occ. eigenvalues --  -14.39129 -14.38756 -14.38509 -10.37447 -10.36135
 Alpha  occ. eigenvalues --  -10.32861 -10.32767 -10.32705 -10.31972 -10.29711
 Alpha  occ. eigenvalues --  -10.29280 -10.28937 -10.28930 -10.28874 -10.28561
 Alpha  occ. eigenvalues --  -10.28544 -10.28517 -10.28398 -10.28328 -10.28310
 Alpha  occ. eigenvalues --  -10.28309 -10.28190 -10.27145 -10.27022 -10.26819
 Alpha  occ. eigenvalues --  -10.26787 -10.26678 -10.26357 -10.26352 -10.26257
 Alpha  occ. eigenvalues --  -10.26213 -10.26210 -10.26155 -10.26065 -10.26057
 Alpha  occ. eigenvalues --  -10.26044 -10.25995 -10.25844 -10.25815 -10.25583
 Alpha  occ. eigenvalues --  -10.25491 -10.25461 -10.25447 -10.25328 -10.25290
 Alpha  occ. eigenvalues --  -10.25231 -10.25074 -10.25067 -10.24698 -10.24669
 Alpha  occ. eigenvalues --  -10.24651 -10.24407 -10.24395 -10.24376 -10.24331
 Alpha  occ. eigenvalues --  -10.24086 -10.24000 -10.23985 -10.23972 -10.23828
 Alpha  occ. eigenvalues --  -10.23796 -10.23780 -10.23771 -10.23592 -10.22928
 Alpha  occ. eigenvalues --  -10.22848 -10.22831 -10.22673 -10.22645 -10.22559
 Alpha  occ. eigenvalues --  -10.22368  -3.15280  -3.14583  -1.88090  -1.87661
 Alpha  occ. eigenvalues --   -1.87492  -1.87404  -1.86962  -1.86811  -1.11078
 Alpha  occ. eigenvalues --   -1.10373  -1.07580  -1.06884  -1.03994  -1.03396
 Alpha  occ. eigenvalues --   -1.02831  -1.02339  -0.99908  -0.98979  -0.98822
 Alpha  occ. eigenvalues --   -0.98022  -0.97778  -0.97434  -0.97122  -0.96473
 Alpha  occ. eigenvalues --   -0.87724  -0.85979  -0.84227  -0.83664  -0.83549
 Alpha  occ. eigenvalues --   -0.83393  -0.83144  -0.82544  -0.82221  -0.81688
 Alpha  occ. eigenvalues --   -0.81445  -0.81414  -0.80447  -0.80267  -0.79130
 Alpha  occ. eigenvalues --   -0.78645  -0.78263  -0.77949  -0.76966  -0.76657
 Alpha  occ. eigenvalues --   -0.76233  -0.76128  -0.75160  -0.75046  -0.74861
 Alpha  occ. eigenvalues --   -0.74759  -0.72578  -0.72173  -0.71780  -0.71435
 Alpha  occ. eigenvalues --   -0.71395  -0.71216  -0.70831  -0.70196  -0.69898
 Alpha  occ. eigenvalues --   -0.69019  -0.68019  -0.66797  -0.66703  -0.65869
 Alpha  occ. eigenvalues --   -0.64095  -0.63811  -0.63636  -0.63406  -0.62698
 Alpha  occ. eigenvalues --   -0.62153  -0.61712  -0.61320  -0.60724  -0.60185
 Alpha  occ. eigenvalues --   -0.59973  -0.59532  -0.59482  -0.58771  -0.58637
 Alpha  occ. eigenvalues --   -0.58507  -0.57715  -0.56267  -0.55108  -0.54659
 Alpha  occ. eigenvalues --   -0.54526  -0.54241  -0.54088  -0.53674  -0.53381
 Alpha  occ. eigenvalues --   -0.52932  -0.52748  -0.52550  -0.51938  -0.51413
 Alpha  occ. eigenvalues --   -0.50863  -0.50607  -0.50415  -0.50371  -0.50242
 Alpha  occ. eigenvalues --   -0.49909  -0.49603  -0.49463  -0.49168  -0.49011
 Alpha  occ. eigenvalues --   -0.48626  -0.48481  -0.48259  -0.48155  -0.47841
 Alpha  occ. eigenvalues --   -0.47741  -0.47421  -0.47410  -0.46952  -0.46867
 Alpha  occ. eigenvalues --   -0.46545  -0.46372  -0.46231  -0.45763  -0.45722
 Alpha  occ. eigenvalues --   -0.45553  -0.45491  -0.45365  -0.45179  -0.45168
 Alpha  occ. eigenvalues --   -0.44865  -0.44842  -0.44704  -0.44647  -0.44529
 Alpha  occ. eigenvalues --   -0.44306  -0.44134  -0.43863  -0.43627  -0.43615
 Alpha  occ. eigenvalues --   -0.43380  -0.43330  -0.43230  -0.43030  -0.42923
 Alpha  occ. eigenvalues --   -0.42680  -0.42450  -0.42314  -0.41917  -0.41901
 Alpha  occ. eigenvalues --   -0.41841  -0.41660  -0.41467  -0.41356  -0.41200
 Alpha  occ. eigenvalues --   -0.40851  -0.40768  -0.40681  -0.40508  -0.40496
 Alpha  occ. eigenvalues --   -0.40278  -0.40239  -0.40174  -0.40111  -0.39974
 Alpha  occ. eigenvalues --   -0.39709  -0.39358  -0.39319  -0.39046  -0.38975
 Alpha  occ. eigenvalues --   -0.38863  -0.38706  -0.38518  -0.38501  -0.38387
 Alpha  occ. eigenvalues --   -0.38167  -0.38101  -0.37814  -0.37691  -0.37598
 Alpha  occ. eigenvalues --   -0.37477  -0.37349  -0.37293  -0.37245  -0.37200
 Alpha  occ. eigenvalues --   -0.36931  -0.36899  -0.36723  -0.36594  -0.36433
 Alpha  occ. eigenvalues --   -0.36421  -0.36239  -0.36041  -0.35753  -0.35487
 Alpha  occ. eigenvalues --   -0.35082  -0.34999  -0.34083  -0.34078  -0.33897
 Alpha  occ. eigenvalues --   -0.33790  -0.33227  -0.33054  -0.32840  -0.32798
 Alpha  occ. eigenvalues --   -0.32417  -0.32378  -0.32230  -0.31968  -0.31484
 Alpha  occ. eigenvalues --   -0.30877  -0.30779  -0.30330  -0.29883  -0.29534
 Alpha  occ. eigenvalues --   -0.28882  -0.28805  -0.28671  -0.27450  -0.26529
 Alpha  occ. eigenvalues --   -0.26448  -0.26189  -0.25698  -0.25593  -0.25515
 Alpha  occ. eigenvalues --   -0.25387  -0.25126  -0.25018  -0.21406  -0.20757
 Alpha  occ. eigenvalues --   -0.19303  -0.18682
 Alpha virt. eigenvalues --   -0.11772  -0.11081  -0.05395  -0.05086  -0.04010
 Alpha virt. eigenvalues --   -0.03773  -0.02142  -0.01948  -0.01652  -0.00982
 Alpha virt. eigenvalues --   -0.00498   0.00326   0.00691   0.00969   0.01366

 Mulliken charges:
               1
     1  Mg  12.000000
     2  C    6.000000
     3  C    6.000000
     4  C    6.000000
     5  C    6.000000
     6  N    7.000000
     7  C    6.000000
     8  C    6.000000
     9  C    6.000000
    10  C    6.000000
    11  C    6.000000
    12  C    6.000000
    13  C    6.000000
    14  H    1.000000
    15  N    7.000000
    16  C    6.000000
    17  C    6.000000
    18  C    6.000000
    19  C    6.000000
    20  C    6.000000
    21  C    6.000000
    22  O    8.000000
    23  C    6.000000
    24  N    7.000000
    25  C    6.000000
    26  C    6.000000
    27  C    6.000000
    28  C    6.000000
    29  C    6.000000
    30  C    6.000000
    31  C    6.000000
    32  N    7.000000
    33  C    6.000000
    34  C    6.000000
    35  C    6.000000
    36  C    6.000000
    37  C    6.000000
    38  C    6.000000
    39  O    8.000000
    40  C    6.000000
    41  C    6.000000
    42  O    8.000000
    43  O    8.000000
    44  C    6.000000
    45  H    1.000000
    46  H    1.000000
    47  H    1.000000
    48  H    1.000000
    49  H    1.000000
    50  H    1.000000
    51  H    1.000000
    52  H    1.000000
    53  H    1.000000
    54  H    1.000000
    55  H    1.000000
    56  H    1.000000
    57  H    1.000000
    58  H    1.000000
    59  H    1.000000
    60  H    1.000000
    61  H    1.000000
    62  H    1.000000
    63  H    1.000000
    64  H    1.000000
    65  H    1.000000
    66  H    1.000000
    67  H    1.000000
    68  H    1.000000
    69  H    1.000000
    70  H    1.000000
    71  H    1.000000
    72  H    1.000000
    73  H    1.000000
    74  H    1.000000
    75  H    1.000000
    76  H    1.000000
    77  H    1.000000
    78  H    1.000000
    79  H    1.000000
    80  Mg  12.000000
    81  C    6.000000
    82  C    6.000000
    83  C    6.000000
    84  C    6.000000
    85  N    7.000000
    86  C    6.000000
    87  C    6.000000
    88  C    6.000000
    89  C    6.000000
    90  C    6.000000
    91  C    6.000000
    92  C    6.000000
    93  H    1.000000
    94  N    7.000000
    95  C    6.000000
    96  C    6.000000
    97  C    6.000000
    98  C    6.000000
    99  C    6.000000
   100  C    6.000000
   101  O    8.000000
   102  C    6.000000
   103  N    7.000000
   104  C    6.000000
   105  C    6.000000
   106  C    6.000000
   107  C    6.000000
   108  C    6.000000
   109  C    6.000000
   110  C    6.000000
   111  N    7.000000
   112  C    6.000000
   113  C    6.000000
   114  C    6.000000
   115  C    6.000000
   116  C    6.000000
   117  C    6.000000
   118  O    8.000000
   119  C    6.000000
   120  C    6.000000
   121  O    8.000000
   122  O    8.000000
   123  C    6.000000
   124  H    1.000000
   125  H    1.000000
   126  H    1.000000
   127  H    1.000000
   128  H    1.000000
   129  H    1.000000
   130  H    1.000000
   131  H    1.000000
   132  H    1.000000
   133  H    1.000000
   134  H    1.000000
   135  H    1.000000
   136  H    1.000000
   137  H    1.000000
   138  H    1.000000
   139  H    1.000000
   140  H    1.000000
   141  H    1.000000
   142  H    1.000000
   143  H    1.000000
   144  H    1.000000
   145  H    1.000000
   146  H    1.000000
   147  H    1.000000
   148  H    1.000000
   149  H    1.000000
   150  H    1.000000
   151  H    1.000000
   152  H    1.000000
   153  H    1.000000
   154  H    1.000000
   155  H    1.000000
   156  H    1.000000
   157  H    1.000000
   158  H    1.000000
 Sum of Mulliken charges = 624.00000

 Dipole moment (field-independent basis, Debye):
    X=             -0.0000    Y=              0.0000    Z=             -0.0000  Tot=              0.0000
 Quadrupole moment (field-independent basis, Debye-Ang):
   XX=             -0.0000   YY=              0.0000   ZZ=             -0.0000
   XY=              0.0000   XZ=             -0.0000   YZ=              0.0000

 Normal termination of Gaussian 16 at Thu Oct 14 22:24:39 2021.
