 Gaussian 16, Revision A.03,
 Gaussian 16:  ES64L-G16RevA.03 25-Dec-2016

 --------------------------------------------------------
 #p PBE1PBE/Def2SVP td=(nstates=5) density=(transition=1)
 --------------------------------------------------------

 --------------------------------
 TDDFT excited states in gaussian
 --------------------------------
 Symbolic Z-matrix:
 Charge =  0 Multiplicity = 1

                         Standard orientation:
 ---------------------------------------------------------------------
 Center     Atomic      Atomic             Coordinates (Angstroms)
 Number     Number       Type             X           Y           Z
 ---------------------------------------------------------------------
      1         12           0       -0.667462   -0.006451   -0.749015
      2          6           0        2.868855   -0.211548   -0.389110
      3          6           0       -0.881053   -3.400206   -0.337239
      4          6           0       -4.077941    0.342813   -0.046371
      5          6           0       -0.414627    3.494044   -0.572738
      6          7           0        0.939719   -1.583929   -0.132242
      7          6           0        2.271097   -1.491615   -0.282773
      8          6           0        2.853840   -2.881299   -0.463752
      9          6           0        1.653953   -3.942448   -0.379093
     10          6           0        0.465359   -2.854592   -0.427916
     11          6           0        1.711866   -4.859325   -1.621573
     12          6           0        3.933400   -3.154803    0.571059
     13          6           0        3.691106   -2.602653    1.995914
     14          1           0        3.331729   -3.637496    3.096927
     15          7           0       -2.315444   -1.373254   -0.336879
     16          6           0       -2.124819   -2.731256   -0.202029
     17          6           0       -3.433443   -3.299418   -0.114459
     18          6           0       -4.418042   -2.255701    0.072240
     19          6           0       -3.650898   -1.002876   -0.143859
     20          6           0       -3.667909   -4.784721    0.035897
     21          6           0       -5.867877   -2.403752    0.536409
     22          8           0       -6.303919   -3.500291    0.829631
     23          6           0       -6.771130   -1.300055    0.668214
     24          7           0       -2.041062    1.664612   -0.261441
     25          6           0       -3.357068    1.538570   -0.175153
     26          6           0       -4.075233    2.857799    0.058075
     27          6           0       -2.819337    3.812354    0.250835
     28          6           0       -1.693379    2.996945   -0.274539
     29          6           0       -5.029492    3.302035   -1.155314
     30          6           0       -2.700069    4.278859    1.774436
     31          6           0       -2.941805    5.712224    2.154625
     32          7           0        0.823310    1.341241   -0.776128
     33          6           0        0.776143    2.749252   -0.828797
     34          6           0        2.130645    3.309188   -0.992614
     35          6           0        2.921746    2.169858   -0.846179
     36          6           0        2.137715    0.991028   -0.590360
     37          6           0        2.571692    4.768982   -1.356536
     38          6           0        4.325496    1.747022   -0.813396
     39          8           0        5.399219    2.354703   -0.957436
     40          6           0        4.362382    0.207539   -0.538005
     41          6           0        5.076525    0.204014    0.769442
     42          8           0        4.708379    0.772884    1.765057
     43          8           0        6.248717   -0.412163    0.646931
     44          6           0        7.108421   -0.612256    1.865456
     45          1           0       -0.944566   -4.476744   -0.508087
     46          1           0       -5.129364    0.599278    0.097868
     47          1           0       -0.446137    4.573081   -0.404801
     48          1           0        3.288919   -2.740316   -1.453189
     49          1           0        1.669486   -4.518906    0.546253
     50          1           0        1.836257   -5.886370   -1.278928
     51          1           0        2.549492   -4.662262   -2.291136
     52          1           0        0.741764   -4.760512   -2.107906
     53          1           0        4.880217   -2.737575    0.228082
     54          1           0        4.053999   -4.227768    0.723215
     55          1           0        2.833330   -1.947425    2.146928
     56          1           0        4.618155   -2.086774    2.246279
     57          1           0       -2.731221   -5.338305    0.105994
     58          1           0       -4.327175   -5.097052   -0.774718
     59          1           0       -4.292354   -4.924810    0.917553
     60          1           0       -6.500952   -0.561694    1.423456
     61          1           0       -7.759353   -1.674249    0.934918
     62          1           0       -6.720373   -0.831897   -0.315415
     63          1           0       -4.617410    2.907622    1.002015
     64          1           0       -3.152978    4.704701   -0.279093
     65          1           0       -5.038667    2.520189   -1.915305
     66          1           0       -4.586528    4.192301   -1.602162
     67          1           0       -6.048201    3.584087   -0.884836
     68          1           0       -1.678541    4.174318    2.140206
     69          1           0       -3.352459    3.687975    2.415892
     70          1           0       -2.029344    6.285290    2.319469
     71          1           0       -3.469149    5.559801    3.096889
     72          1           0       -3.700148    6.222770    1.560796
     73          1           0        2.453365    5.381476   -0.463113
     74          1           0        1.966869    5.082205   -2.207682
     75          1           0        3.638258    4.758678   -1.580376
     76          1           0        4.889284   -0.234853   -1.384240
     77          1           0        7.735303    0.251739    2.087156
     78          1           0        7.764509   -1.475554    1.747044
     79          1           0        6.401993   -0.813321    2.670814
 ---------------------------------------------------------------------

 SCF Done:  E(RPBE1PBE) =  -2033.64934939     A.U. after   16 cycles

 Excitation energies and oscillator strengths:

 Excited State   1:      Singlet-A      1.8532 eV  669.02 nm  f=0.3447  <S**2>=0.000
     155 ->158         0.19403
     156 ->157         0.68726
 This state for optimization and/or second-order correction.
 Total Energy, E(TD-HF/TD-DFT) =  -2033.58124428
 Copying the excited state density for this state as the 1-particle RhoCI density.

 Excited State   2:      Singlet-A      2.2159 eV  559.53 nm  f=0.0725  <S**2>=0.000
     155 ->157         0.63263
     156 ->158        -0.30029

 Excited State   3:      Singlet-A      2.8236 eV  439.10 nm  f=0.0070  <S**2>=0.000
     154 ->157         0.69172
     156 ->158         0.10952

 Excited State   4:      Singlet-A      2.9679 eV  417.75 nm  f=0.0001  <S**2>=0.000
     151 ->157         0.11805
     152 ->157         0.65486
     152 ->159        -0.16745
     153 ->157         0.10680

 Excited State   5:      Singlet-A      3.0084 eV  412.12 nm  f=0.0008  <S**2>=0.000
     152 ->157        -0.10559
     153 ->157         0.66840
     153 ->159         0.14039
     153 ->160         0.11410

 The electronic state is 1-A.
 Alpha  occ. eigenvalues --  -46.93590 -19.25710 -19.19139 -19.19083 -19.18264
 Alpha  occ. eigenvalues --  -14.41934 -14.41467 -14.39851 -14.39202 -10.35741
 Alpha  occ. eigenvalues --  -10.32193 -10.31415 -10.29778 -10.29675 -10.29149
 Alpha  occ. eigenvalues --  -10.28805 -10.28558 -10.28512 -10.28362 -10.27717
 Alpha  occ. eigenvalues --  -10.27479 -10.26721 -10.26580 -10.26546 -10.26041
 Alpha  occ. eigenvalues --  -10.26024 -10.25893 -10.25765 -10.25690 -10.25665
 Alpha  occ. eigenvalues --  -10.25562 -10.25094 -10.24732 -10.24569 -10.24446
 Alpha  occ. eigenvalues --  -10.24321 -10.24174 -10.24099 -10.23661 -10.23566
 Alpha  occ. eigenvalues --  -10.22977 -10.22931 -10.22475  -3.15484  -1.88285
 Alpha  occ. eigenvalues --   -1.87888  -1.87683  -1.11833  -1.04936  -1.03580
 Alpha  occ. eigenvalues --   -1.02524  -0.99222  -0.98283  -0.97093  -0.96232
 Alpha  occ. eigenvalues --   -0.86313  -0.83259  -0.83058  -0.82568  -0.81411
 Alpha  occ. eigenvalues --   -0.80488  -0.79619  -0.78919  -0.78342  -0.77089
 Alpha  occ. eigenvalues --   -0.76842  -0.75438  -0.74610  -0.72247  -0.71645
 Alpha  occ. eigenvalues --   -0.70702  -0.70567  -0.69309  -0.67312  -0.66191
 Alpha  occ. eigenvalues --   -0.63236  -0.62937  -0.62543  -0.61146  -0.60018
 Alpha  occ. eigenvalues --   -0.59629  -0.59345  -0.58578  -0.57014  -0.54856
 Alpha  occ. eigenvalues --   -0.53861  -0.53603  -0.53088  -0.52408  -0.51844
 Alpha  occ. eigenvalues --   -0.50755  -0.50369  -0.49606  -0.49488  -0.49118
 Alpha  occ. eigenvalues --   -0.48468  -0.48091  -0.47700  -0.47213  -0.46936
 Alpha  occ. eigenvalues --   -0.46672  -0.46421  -0.46088  -0.45222  -0.44815
 Alpha  occ. eigenvalues --   -0.44370  -0.44289  -0.44044  -0.43816  -0.43532
 Alpha  occ. eigenvalues --   -0.43131  -0.42928  -0.42457  -0.41969  -0.41644
 Alpha  occ. eigenvalues --   -0.41619  -0.41338  -0.41044  -0.40539  -0.40296
 Alpha  occ. eigenvalues --   -0.40096  -0.39934  -0.39822  -0.39574  -0.39147
 Alpha  occ. eigenvalues --   -0.38770  -0.38581  -0.38359  -0.37994  -0.37756
 Alpha  occ. eigenvalues --   -0.37265  -0.36888  -0.36350  -0.36224  -0.36128
 Alpha  occ. eigenvalues --   -0.35726  -0.35017  -0.34970  -0.34740  -0.33662
 Alpha  occ. eigenvalues --   -0.32939  -0.32416  -0.32107  -0.31782  -0.31424
 Alpha  occ. eigenvalues --   -0.30721  -0.29287  -0.29138  -0.28842  -0.27027
 Alpha  occ. eigenvalues --   -0.26029  -0.25541  -0.25379  -0.24496  -0.21236
 Alpha  occ. eigenvalues --   -0.18996
 Alpha virt. eigenvalues --   -0.11278  -0.05939  -0.03977  -0.02077  -0.01677
 Alpha virt. eigenvalues --    0.00404   0.00953   0.02669   0.03048   0.03990
 Alpha virt. eigenvalues --    0.04933   0.05643   0.06157   0.06276   0.06860

 Mulliken charges:
               1
     1  Mg  12.005425
     2  C    6.011181
     3  C    5.976274
     4  C    5.987009
     5  C    6.018152
     6  N    7.006368
     7  C    5.972761
     8  C    6.001098
     9  C    5.986393
    10  C    6.040560
    11  C    5.999166
    12  C    6.002780
    13  C    6.007203
    14  H    0.987067
    15  N    6.991905
    16  C    6.040822
    17  C    6.018056
    18  C    6.009978
    19  C    6.035087
    20  C    5.997030
    21  C    6.011811
    22  O    8.017104
    23  C    5.996361
    24  N    7.003803
    25  C    6.026590
    26  C    5.987561
    27  C    6.014305
    28  C    5.962771
    29  C    5.997448
    30  C    6.000698
    31  C    6.001618
    32  N    7.003019
    33  C    5.960273
    34  C    5.973782
    35  C    5.998672
    36  C    5.970507
    37  C    5.995713
    38  C    5.983640
    39  O    7.968196
    40  C    5.999916
    41  C    5.993833
    42  O    7.997521
    43  O    7.998415
    44  C    6.001806
    45  H    1.006440
    46  H    1.009504
    47  H    0.991227
    48  H    1.005534
    49  H    1.005400
    50  H    1.004086
    51  H    1.010095
    52  H    0.995967
    53  H    1.004831
    54  H    0.992686
    55  H    1.000014
    56  H    1.003781
    57  H    1.017820
    58  H    1.018061
    59  H    1.015477
    60  H    1.010543
    61  H    1.011605
    62  H    1.006340
    63  H    1.001573
    64  H    0.995677
    65  H    0.996681
    66  H    1.011559
    67  H    1.001376
    68  H    1.003514
    69  H    0.987479
    70  H    1.002452
    71  H    0.995187
    72  H    0.995597
    73  H    0.984510
    74  H    0.986027
    75  H    0.990259
    76  H    0.990699
    77  H    0.998194
    78  H    0.994337
    79  H    0.995788
 Sum of Mulliken charges = 312.00000

 Dipole moment (field-independent basis, Debye):
    X=             -7.5247    Y=             -6.4194    Z=              0.5046  Tot=              9.9037
 Quadrupole moment (field-independent basis, Debye-Ang):
   XX=              7.4259   YY=              0.3489   ZZ=             -1.4762
   XY=              5.1883   XZ=              1.4910   YZ=              3.4612

 Normal termination of Gaussian 16 at Wed Oct 13 18:50:57 2021.
