 Gaussian 16, Revision A.03,
 Gaussian 16:  ES64L-G16RevA.03 25-Dec-2016

 --------------------------------------------------------
 #p PBE1PBE/Def2SVP td=(nstates=5) density=(transition=1)
 --------------------------------------------------------

 --------------------------------
 TDDFT excited states in gaussian
 --------------------------------
 Symbolic Z-matrix:
 Charge =  0 Multiplicity = 1

                         Standard orientation:
 ---------------------------------------------------------------------
 Center     Atomic      Atomic             Coordinates (Angstroms)
 Number     Number       Type             X           Y           Z
 ---------------------------------------------------------------------
      1         12           0       30.067676    0.412445    0.379560
      2          6           0       29.436797   -2.375540   -1.457456
      3          6           0       29.104394    2.557872   -2.144782
      4          6           0       30.963892    3.068379    2.345821
      5          6           0       31.513688   -1.709883    2.928219
      6          7           0       29.558054    0.105707   -1.627787
      7          6           0       29.097714   -1.160019   -2.123682
      8          6           0       28.332901   -0.990276   -3.375076
      9          6           0       28.631331    0.537599   -3.719666
     10          6           0       29.139230    1.153557   -2.435055
     11          6           0       29.705118    0.721745   -4.905104
     12          6           0       26.848625   -1.463922   -3.303223
     13          6           0       26.380261   -2.273634   -4.469186
     14          1           0       26.888210   -1.804935   -5.889465
     15          7           0       29.969617    2.527762    0.159586
     16          6           0       29.550237    3.151553   -0.977678
     17          6           0       29.611227    4.553620   -0.743746
     18          6           0       30.073458    4.772226    0.612636
     19          6           0       30.306946    3.400084    1.175283
     20          6           0       29.313468    5.586088   -1.852964
     21          6           0       30.279573    6.003893    1.437778
     22          8           0       30.781613    6.099854    2.563304
     23          6           0       29.737183    7.336953    0.796538
     24          7           0       31.215000    0.672779    2.361537
     25          6           0       31.337122    1.834265    2.954451
     26          6           0       31.787237    1.702127    4.407921
     27          6           0       31.957378    0.164998    4.574296
     28          6           0       31.553380   -0.342384    3.191415
     29          6           0       33.139175    2.514978    4.743201
     30          6           0       30.974357   -0.337591    5.721594
     31          6           0       29.437744   -0.290141    5.534291
     32          7           0       30.563430   -1.618478    0.626101
     33          6           0       31.079951   -2.299781    1.712033
     34          6           0       30.956902   -3.737697    1.397320
     35          6           0       30.322533   -3.878481    0.199699
     36          6           0       30.103459   -2.521143   -0.235378
     37          6           0       31.584959   -4.824530    2.199893
     38          6           0       29.803681   -4.804758   -0.806437
     39          8           0       29.806790   -6.023422   -0.854195
     40          6           0       29.218933   -3.830484   -1.920984
     41          6           0       29.996533   -4.064910   -3.154695
     42          8           0       31.227889   -3.989159   -3.309599
     43          8           0       29.041824   -4.398141   -4.094024
     44          6           0       29.551432   -4.501115   -5.467684
     45          1           0       28.759244    3.268851   -2.898133
     46          1           0       31.115783    3.956360    2.964031
     47          1           0       31.874106   -2.370012    3.719124
     48          1           0       28.833345   -1.647968   -4.086909
     49          1           0       27.687681    1.008152   -3.994037
     50          1           0       29.889130   -0.189937   -5.473502
     51          1           0       30.662539    0.902288   -4.416582
     52          1           0       29.334714    1.591278   -5.446484
     53          1           0       26.190455   -0.598079   -3.230351
     54          1           0       26.838888   -2.077332   -2.402372
     55          1           0       25.299697   -2.242644   -4.603256
     56          1           0       26.524079   -3.353449   -4.509268
     57          1           0       28.260397    5.740508   -2.087826
     58          1           0       29.901618    5.203987   -2.687173
     59          1           0       29.587976    6.602769   -1.572523
     60          1           0       30.399469    7.631881   -0.017438
     61          1           0       29.535186    8.039765    1.604634
     62          1           0       28.725066    7.250829    0.400657
     63          1           0       30.977737    2.044638    5.052072
     64          1           0       32.968007   -0.135315    4.851111
     65          1           0       32.827472    3.381090    5.328076
     66          1           0       33.607067    2.862153    3.821412
     67          1           0       33.916151    2.046068    5.345618
     68          1           0       31.150032    0.100468    6.703979
     69          1           0       31.218088   -1.400159    5.748152
     70          1           0       29.167813   -1.346228    5.544793
     71          1           0       29.140632    0.226762    4.622663
     72          1           0       28.910598    0.227624    6.335593
     73          1           0       30.884857   -5.649110    2.069206
     74          1           0       31.713978   -4.557387    3.248910
     75          1           0       32.448339   -5.180890    1.639558
     76          1           0       28.227214   -4.268483   -2.030764
     77          1           0       28.680582   -4.878457   -6.004502
     78          1           0       30.305459   -5.287942   -5.446380
     79          1           0       30.042107   -3.610054   -5.859826
     80         12           0      -30.423138   -0.688593   -0.351582
     81          6           0      -28.431004    2.126310   -1.083903
     82          6           0      -27.634050   -2.171591    0.924690
     83          6           0      -32.461893   -3.058749    1.029464
     84          6           0      -33.218508    1.321024   -1.272101
     85          7           0      -28.267269   -0.014719    0.022508
     86          6           0      -27.617209    1.078760   -0.473653
     87          6           0      -26.149631    1.141876   -0.016366
     88          6           0      -25.959781   -0.429487    0.261658
     89          6           0      -27.380830   -0.912856    0.411882
     90          6           0      -25.206595   -1.222431   -0.839923
     91          6           0      -25.902810    1.997243    1.306813
     92          6           0      -24.522686    2.585965    1.555348
     93          1           0      -23.600048    2.071832    2.680928
     94          7           0      -30.156103   -2.469345    0.823666
     95          6           0      -28.905492   -2.939745    1.101007
     96          6           0      -28.959745   -4.231295    1.627763
     97          6           0      -30.366912   -4.561625    1.658456
     98          6           0      -31.097913   -3.349165    1.193129
     99          6           0      -27.749406   -5.064945    2.030894
    100          6           0      -30.876639   -5.905889    2.126646
    101          8           0      -30.057371   -6.785088    2.498833
    102          6           0      -32.386726   -6.330003    2.076764
    103          7           0      -32.494819   -0.791468   -0.186898
    104          6           0      -33.116867   -1.920652    0.411275
    105          6           0      -34.584335   -1.930459    0.084564
    106          6           0      -34.898660   -0.471503   -0.311551
    107          6           0      -33.485203    0.056266   -0.694238
    108          6           0      -35.113744   -2.835561   -1.050735
    109          6           0      -35.494822    0.386992    0.924436
    110          6           0      -36.986276    0.305553    1.212841
    111          7           0      -30.720311    1.261560   -1.213644
    112          6           0      -31.895257    1.924337   -1.535280
    113          6           0      -31.651421    3.210425   -1.979003
    114          6           0      -30.256109    3.343909   -1.876539
    115          6           0      -29.744478    2.132707   -1.381059
    116          6           0      -32.695810    4.176445   -2.442198
    117          6           0      -29.202916    4.165929   -2.165490
    118          8           0      -29.176114    5.226040   -2.758990
    119          6           0      -28.015465    3.512783   -1.427398
    120          6           0      -27.750585    4.409456   -0.254965
    121          8           0      -28.559345    4.674843    0.579032
    122          8           0      -26.460646    4.937447   -0.333217
    123          6           0      -26.219764    5.922982    0.662609
    124          1           0      -26.743891   -2.762472    1.151431
    125          1           0      -33.149619   -3.873606    1.266964
    126          1           0      -34.106784    1.819833   -1.664736
    127          1           0      -25.467849    1.373553   -0.833975
    128          1           0      -25.350473   -0.509048    1.161516
    129          1           0      -24.194730   -1.278147   -0.437536
    130          1           0      -25.170490   -0.683172   -1.786418
    131          1           0      -25.602643   -2.232113   -0.949733
    132          1           0      -26.076164    1.385254    2.192029
    133          1           0      -26.683425    2.757948    1.330093
    134          1           0      -24.718074    3.646264    1.722069
    135          1           0      -23.970922    2.515763    0.618080
    136          1           0      -27.757399   -6.143209    1.868081
    137          1           0      -27.695905   -4.756674    3.074764
    138          1           0      -26.885904   -4.780028    1.429785
    139          1           0      -32.726789   -6.337240    1.041547
    140          1           0      -32.858835   -5.571540    2.700915
    141          1           0      -32.643211   -7.256469    2.590379
    142          1           0      -35.102703   -2.143324    1.018926
    143          1           0      -35.596794   -0.410464   -1.146487
    144          1           0      -35.494380   -2.307721   -1.924974
    145          1           0      -35.617050   -3.717176   -0.653279
    146          1           0      -34.212212   -3.298886   -1.451255
    147          1           0      -35.207455    1.389298    0.607424
    148          1           0      -34.979827    0.138680    1.852648
    149          1           0      -37.133337    0.054470    2.262937
    150          1           0      -37.430186   -0.471986    0.590547
    151          1           0      -37.474018    1.268460    1.058923
    152          1           0      -32.498010    5.106686   -1.910420
    153          1           0      -33.703931    3.876854   -2.153120
    154          1           0      -32.643420    4.377147   -3.512419
    155          1           0      -27.161152    3.508267   -2.103448
    156          1           0      -26.453284    6.909859    0.263991
    157          1           0      -25.163775    6.045302    0.906483
    158          1           0      -26.811460    5.758999    1.561606
 ---------------------------------------------------------------------

 SCF Done:  E(RPBE1PBE) =  -4067.34911634     A.U. after   16 cycles

 Excitation energies and oscillator strengths:

 Excited State   1:      Singlet-A      1.7579 eV  705.29 nm  f=0.0000  <S**2>=0.000
     312 -> 313        0.70711
 This state for optimization and/or second-order correction.
 Total Energy, E(TD-HF/TD-DFT) =  -4067.28451377
 Copying the excited state density for this state as the 1-particle RhoCI density.

 Excited State   2:      Singlet-A      1.8382 eV  674.49 nm  f=0.3694  <S**2>=0.000
     310 -> 316       -0.17969
     312 -> 314        0.69182
     312 <- 314       -0.10365

 Excited State   3:      Singlet-A      1.8621 eV  665.85 nm  f=0.3902  <S**2>=0.000
     309 -> 315       -0.18181
     311 -> 313        0.68866
     311 <- 313       -0.10551

 Excited State   4:      Singlet-A      2.1541 eV  575.57 nm  f=0.1182  <S**2>=0.000
     309 -> 313        0.65689
     311 -> 315        0.24322

 Excited State   5:      Singlet-A      2.2557 eV  549.64 nm  f=0.0512  <S**2>=0.000
     310 -> 314        0.62871
     312 -> 316        0.31570

 The electronic state is 1-A.
 Alpha  occ. eigenvalues --  -46.93708 -46.92657 -19.26372 -19.26028 -19.21095
 Alpha  occ. eigenvalues --  -19.20570 -19.19956 -19.19565 -19.18372 -19.18174
 Alpha  occ. eigenvalues --  -14.42516 -14.42351 -14.41988 -14.41593 -14.39457
 Alpha  occ. eigenvalues --  -14.39241 -14.39099 -14.38849 -10.36694 -10.36619
 Alpha  occ. eigenvalues --  -10.32729 -10.32682 -10.32243 -10.30474 -10.30124
 Alpha  occ. eigenvalues --  -10.30113 -10.29654 -10.29604 -10.29466 -10.29101
 Alpha  occ. eigenvalues --  -10.28551 -10.28526 -10.28372 -10.28214 -10.28127
 Alpha  occ. eigenvalues --  -10.27937 -10.27934 -10.27701 -10.27624 -10.27355
 Alpha  occ. eigenvalues --  -10.27064 -10.26747 -10.26666 -10.26602 -10.26600
 Alpha  occ. eigenvalues --  -10.26323 -10.26229 -10.26171 -10.25981 -10.25895
 Alpha  occ. eigenvalues --  -10.25853 -10.25845 -10.25764 -10.25711 -10.25676
 Alpha  occ. eigenvalues --  -10.25621 -10.25590 -10.25512 -10.25475 -10.25440
 Alpha  occ. eigenvalues --  -10.25408 -10.25392 -10.25266 -10.25228 -10.25196
 Alpha  occ. eigenvalues --  -10.25100 -10.25028 -10.24984 -10.24942 -10.24747
 Alpha  occ. eigenvalues --  -10.24238 -10.24185 -10.24096 -10.24071 -10.24004
 Alpha  occ. eigenvalues --  -10.23741 -10.23677 -10.23567 -10.23353 -10.23298
 Alpha  occ. eigenvalues --  -10.23141 -10.23116 -10.23022 -10.22960 -10.22677
 Alpha  occ. eigenvalues --  -10.21888  -3.15587  -3.14646  -1.88425  -1.87954
 Alpha  occ. eigenvalues --   -1.87805  -1.87490  -1.87010  -1.86869  -1.12373
 Alpha  occ. eigenvalues --   -1.10789  -1.05109  -1.04839  -1.04306  -1.04172
 Alpha  occ. eigenvalues --   -1.02344  -1.02071  -1.00347  -0.99786  -0.99359
 Alpha  occ. eigenvalues --   -0.98612  -0.98612  -0.97455  -0.96538  -0.96336
 Alpha  occ. eigenvalues --   -0.88733  -0.86842  -0.83421  -0.83237  -0.83117
 Alpha  occ. eigenvalues --   -0.83038  -0.83000  -0.82318  -0.81942  -0.81733
 Alpha  occ. eigenvalues --   -0.81435  -0.81272  -0.80418  -0.80231  -0.78966
 Alpha  occ. eigenvalues --   -0.78665  -0.77931  -0.77698  -0.77183  -0.76703
 Alpha  occ. eigenvalues --   -0.76167  -0.75898  -0.75502  -0.75024  -0.74598
 Alpha  occ. eigenvalues --   -0.74150  -0.72408  -0.72361  -0.71714  -0.71695
 Alpha  occ. eigenvalues --   -0.71493  -0.71231  -0.70289  -0.70171  -0.70060
 Alpha  occ. eigenvalues --   -0.69329  -0.68083  -0.66959  -0.66707  -0.66671
 Alpha  occ. eigenvalues --   -0.64203  -0.63927  -0.63670  -0.62927  -0.62862
 Alpha  occ. eigenvalues --   -0.62806  -0.61852  -0.61656  -0.60696  -0.59833
 Alpha  occ. eigenvalues --   -0.59808  -0.59495  -0.59298  -0.59243  -0.58961
 Alpha  occ. eigenvalues --   -0.58783  -0.57368  -0.57144  -0.55037  -0.54848
 Alpha  occ. eigenvalues --   -0.54735  -0.54154  -0.54017  -0.53789  -0.53566
 Alpha  occ. eigenvalues --   -0.53518  -0.53401  -0.52725  -0.52524  -0.52132
 Alpha  occ. eigenvalues --   -0.51139  -0.50576  -0.50201  -0.50113  -0.49870
 Alpha  occ. eigenvalues --   -0.49674  -0.49547  -0.49469  -0.49050  -0.48459
 Alpha  occ. eigenvalues --   -0.48171  -0.48143  -0.47947  -0.47822  -0.47694
 Alpha  occ. eigenvalues --   -0.47349  -0.47236  -0.47000  -0.46935  -0.46697
 Alpha  occ. eigenvalues --   -0.46497  -0.46438  -0.46334  -0.46235  -0.46066
 Alpha  occ. eigenvalues --   -0.45796  -0.45670  -0.45489  -0.45422  -0.45163
 Alpha  occ. eigenvalues --   -0.44729  -0.44554  -0.44489  -0.44352  -0.44303
 Alpha  occ. eigenvalues --   -0.43998  -0.43983  -0.43650  -0.43559  -0.43495
 Alpha  occ. eigenvalues --   -0.43280  -0.43222  -0.43134  -0.43109  -0.42777
 Alpha  occ. eigenvalues --   -0.42662  -0.42361  -0.42106  -0.42033  -0.42022
 Alpha  occ. eigenvalues --   -0.41901  -0.41713  -0.41623  -0.41358  -0.41293
 Alpha  occ. eigenvalues --   -0.41141  -0.41097  -0.40899  -0.40803  -0.40622
 Alpha  occ. eigenvalues --   -0.40555  -0.40331  -0.40073  -0.39963  -0.39855
 Alpha  occ. eigenvalues --   -0.39519  -0.39513  -0.39420  -0.39321  -0.38767
 Alpha  occ. eigenvalues --   -0.38670  -0.38640  -0.38270  -0.38173  -0.38033
 Alpha  occ. eigenvalues --   -0.38015  -0.37792  -0.37758  -0.37702  -0.37670
 Alpha  occ. eigenvalues --   -0.37427  -0.37307  -0.37113  -0.37097  -0.37082
 Alpha  occ. eigenvalues --   -0.36906  -0.36876  -0.36522  -0.36446  -0.36413
 Alpha  occ. eigenvalues --   -0.36216  -0.36018  -0.35851  -0.35684  -0.35395
 Alpha  occ. eigenvalues --   -0.35386  -0.35227  -0.34750  -0.34496  -0.34372
 Alpha  occ. eigenvalues --   -0.33498  -0.32877  -0.32836  -0.32642  -0.32541
 Alpha  occ. eigenvalues --   -0.32168  -0.32093  -0.31922  -0.31754  -0.31618
 Alpha  occ. eigenvalues --   -0.31496  -0.31397  -0.30400  -0.30264  -0.29651
 Alpha  occ. eigenvalues --   -0.29399  -0.29036  -0.29025  -0.27095  -0.26893
 Alpha  occ. eigenvalues --   -0.26353  -0.25966  -0.25710  -0.25672  -0.25454
 Alpha  occ. eigenvalues --   -0.25351  -0.25247  -0.24633  -0.21320  -0.21316
 Alpha  occ. eigenvalues --   -0.19641  -0.18680
 Alpha virt. eigenvalues --   -0.12002  -0.11082  -0.05994  -0.05810  -0.04468
 Alpha virt. eigenvalues --   -0.04285  -0.02291  -0.01871  -0.01407  -0.00884
 Alpha virt. eigenvalues --    0.00053   0.00093   0.00741   0.00786   0.01026

 Mulliken charges:
               1
     1  Mg  12.000000
     2  C    6.000000
     3  C    6.000000
     4  C    6.000000
     5  C    6.000000
     6  N    7.000000
     7  C    6.000000
     8  C    6.000000
     9  C    6.000000
    10  C    6.000000
    11  C    6.000000
    12  C    6.000000
    13  C    6.000000
    14  H    1.000000
    15  N    7.000000
    16  C    6.000000
    17  C    6.000000
    18  C    6.000000
    19  C    6.000000
    20  C    6.000000
    21  C    6.000000
    22  O    8.000000
    23  C    6.000000
    24  N    7.000000
    25  C    6.000000
    26  C    6.000000
    27  C    6.000000
    28  C    6.000000
    29  C    6.000000
    30  C    6.000000
    31  C    6.000000
    32  N    7.000000
    33  C    6.000000
    34  C    6.000000
    35  C    6.000000
    36  C    6.000000
    37  C    6.000000
    38  C    6.000000
    39  O    8.000000
    40  C    6.000000
    41  C    6.000000
    42  O    8.000000
    43  O    8.000000
    44  C    6.000000
    45  H    1.000000
    46  H    1.000000
    47  H    1.000000
    48  H    1.000000
    49  H    1.000000
    50  H    1.000000
    51  H    1.000000
    52  H    1.000000
    53  H    1.000000
    54  H    1.000000
    55  H    1.000000
    56  H    1.000000
    57  H    1.000000
    58  H    1.000000
    59  H    1.000000
    60  H    1.000000
    61  H    1.000000
    62  H    1.000000
    63  H    1.000000
    64  H    1.000000
    65  H    1.000000
    66  H    1.000000
    67  H    1.000000
    68  H    1.000000
    69  H    1.000000
    70  H    1.000000
    71  H    1.000000
    72  H    1.000000
    73  H    1.000000
    74  H    1.000000
    75  H    1.000000
    76  H    1.000000
    77  H    1.000000
    78  H    1.000000
    79  H    1.000000
    80  Mg  12.000000
    81  C    6.000000
    82  C    6.000000
    83  C    6.000000
    84  C    6.000000
    85  N    7.000000
    86  C    6.000000
    87  C    6.000000
    88  C    6.000000
    89  C    6.000000
    90  C    6.000000
    91  C    6.000000
    92  C    6.000000
    93  H    1.000000
    94  N    7.000000
    95  C    6.000000
    96  C    6.000000
    97  C    6.000000
    98  C    6.000000
    99  C    6.000000
   100  C    6.000000
   101  O    8.000000
   102  C    6.000000
   103  N    7.000000
   104  C    6.000000
   105  C    6.000000
   106  C    6.000000
   107  C    6.000000
   108  C    6.000000
   109  C    6.000000
   110  C    6.000000
   111  N    7.000000
   112  C    6.000000
   113  C    6.000000
   114  C    6.000000
   115  C    6.000000
   116  C    6.000000
   117  C    6.000000
   118  O    8.000000
   119  C    6.000000
   120  C    6.000000
   121  O    8.000000
   122  O    8.000000
   123  C    6.000000
   124  H    1.000000
   125  H    1.000000
   126  H    1.000000
   127  H    1.000000
   128  H    1.000000
   129  H    1.000000
   130  H    1.000000
   131  H    1.000000
   132  H    1.000000
   133  H    1.000000
   134  H    1.000000
   135  H    1.000000
   136  H    1.000000
   137  H    1.000000
   138  H    1.000000
   139  H    1.000000
   140  H    1.000000
   141  H    1.000000
   142  H    1.000000
   143  H    1.000000
   144  H    1.000000
   145  H    1.000000
   146  H    1.000000
   147  H    1.000000
   148  H    1.000000
   149  H    1.000000
   150  H    1.000000
   151  H    1.000000
   152  H    1.000000
   153  H    1.000000
   154  H    1.000000
   155  H    1.000000
   156  H    1.000000
   157  H    1.000000
   158  H    1.000000
 Sum of Mulliken charges = 624.00000

 Dipole moment (field-independent basis, Debye):
    X=              0.0000    Y=              0.0000    Z=             -0.0000  Tot=              0.0000
 Quadrupole moment (field-independent basis, Debye-Ang):
   XX=             -0.0000   YY=             -0.0000   ZZ=              0.0000
   XY=             -0.0000   XZ=              0.0000   YZ=              0.0000

 Normal termination of Gaussian 16 at Wed Oct 13 21:34:16 2021.
