 Gaussian 16, Revision A.03,
 Gaussian 16:  ES64L-G16RevA.03 25-Dec-2016

 ---------------------------------------------------
 #p PBE1PBE/Def2SVP td=(nstates=5) density=(current)
 ---------------------------------------------------

 --------------------------------
 TDDFT excited states in gaussian
 --------------------------------
 Symbolic Z-matrix:
 Charge =  0 Multiplicity = 1

                         Standard orientation:
 ---------------------------------------------------------------------
 Center     Atomic      Atomic             Coordinates (Angstroms)
 Number     Number       Type             X           Y           Z
 ---------------------------------------------------------------------
      1         12           0       -0.827820    0.127544    0.151705
      2          6           0        2.707985    0.030713    0.332579
      3          6           0       -0.670713   -3.356199   -0.087978
      4          6           0       -4.108718    0.024778    0.083290
      5          6           0       -0.678853    3.555167   -0.413220
      6          7           0        0.844101   -1.429879    0.163509
      7          6           0        2.175338   -1.255952    0.393046
      8          6           0        3.030417   -2.534697    0.400389
      9          6           0        1.845050   -3.593205    0.129773
     10          6           0        0.627649   -2.720099    0.053550
     11          6           0        1.999300   -4.414463   -1.211087
     12          6           0        3.761720   -2.773890    1.761495
     13          6           0        5.271184   -2.700396    1.956180
     14          1           0        5.989221   -3.628836    2.926706
     15          7           0       -2.235293   -1.439187    0.093238
     16          6           0       -1.977665   -2.807296   -0.075504
     17          6           0       -3.253160   -3.470397   -0.230339
     18          6           0       -4.270667   -2.542110   -0.023972
     19          6           0       -3.554206   -1.259635    0.118442
     20          6           0       -3.272810   -4.957463   -0.331405
     21          6           0       -5.792046   -2.684392   -0.053094
     22          8           0       -6.587592   -1.755432    0.116627
     23          6           0       -6.336015   -4.055079   -0.151977
     24          7           0       -2.227810    1.547136   -0.226576
     25          6           0       -3.558999    1.336368    0.004214
     26          6           0       -4.326067    2.693254    0.158728
     27          6           0       -3.241256    3.730572   -0.100528
     28          6           0       -1.950228    2.898718   -0.337577
     29          6           0       -5.601652    2.796547   -0.739830
     30          6           0       -3.145061    4.687781    1.097237
     31          6           0       -3.021898    6.143840    0.830127
     32          7           0        0.666019    1.540091   -0.117805
     33          6           0        0.589286    2.896460   -0.309325
     34          6           0        1.891122    3.491844   -0.358637
     35          6           0        2.843617    2.415299   -0.004445
     36          6           0        2.000020    1.243657    0.134767
     37          6           0        2.194667    4.970003   -0.657382
     38          6           0        4.256370    2.030096    0.240439
     39          8           0        5.272693    2.736606    0.351339
     40          6           0        4.196544    0.464160    0.472387
     41          6           0        5.102995    0.005880   -0.627017
     42          8           0        4.824343   -0.232819   -1.795840
     43          8           0        6.296198   -0.252709   -0.166296
     44          6           0        7.397629   -0.563921   -1.109479
     45          1           0       -0.481314   -4.427611    0.001490
     46          1           0       -5.192720    0.136397    0.017852
     47          1           0       -0.656579    4.641337   -0.520287
     48          1           0        3.700915   -2.487780   -0.458623
     49          1           0        1.616121   -4.322511    0.907439
     50          1           0        2.707126   -4.034984   -1.947519
     51          1           0        1.041021   -4.462502   -1.727099
     52          1           0        2.294905   -5.432367   -0.956287
     53          1           0        3.497750   -3.783842    2.075632
     54          1           0        3.401758   -2.070203    2.510985
     55          1           0        5.358027   -1.723017    2.431051
     56          1           0        5.627737   -2.776134    0.928885
     57          1           0       -3.809001   -5.414599    0.499093
     58          1           0       -2.261328   -5.364445   -0.334523
     59          1           0       -3.764395   -5.321567   -1.233045
     60          1           0       -5.853141   -4.691817    0.589414
     61          1           0       -6.044444   -4.553476   -1.076581
     62          1           0       -7.405536   -4.130266    0.041812
     63          1           0       -4.639028    2.646908    1.201676
     64          1           0       -3.502725    4.371663   -0.942230
     65          1           0       -5.881946    1.863630   -1.228692
     66          1           0       -5.515129    3.526000   -1.544281
     67          1           0       -6.419927    3.232979   -0.167259
     68          1           0       -2.248176    4.335005    1.604801
     69          1           0       -3.997010    4.655055    1.775915
     70          1           0       -2.120022    6.443173    1.363576
     71          1           0       -3.941882    6.657642    1.108770
     72          1           0       -2.795842    6.403818   -0.204221
     73          1           0        2.337631    5.091981   -1.730427
     74          1           0        3.080496    5.256787   -0.090873
     75          1           0        1.363066    5.623107   -0.391910
     76          1           0        4.643060    0.276846    1.448761
     77          1           0        7.224062   -1.451629   -1.716728
     78          1           0        8.374327   -0.665026   -0.636664
     79          1           0        7.647216    0.201804   -1.843329
 ---------------------------------------------------------------------

 SCF Done:  E(RPBE1PBE) =  -2033.68284427     A.U. after   16 cycles

 Excitation energies and oscillator strengths:

 Excited State   1:      Singlet-A      1.8639 eV  665.20 nm  f=0.3661  <S**2>=0.000
     155 ->158        -0.18318
     156 ->157         0.68973
 This state for optimization and/or second-order correction.
 Total Energy, E(TD-HF/TD-DFT) =  -2033.61434892
 Copying the excited state density for this state as the 1-particle RhoCI density.

 Excited State   2:      Singlet-A      2.2119 eV  560.54 nm  f=0.1057  <S**2>=0.000
     155 ->157         0.65037
     156 ->158         0.26777

 Excited State   3:      Singlet-A      2.9917 eV  414.42 nm  f=0.0063  <S**2>=0.000
     154 ->157         0.69234

 Excited State   4:      Singlet-A      3.1178 eV  397.67 nm  f=0.0004  <S**2>=0.000
     152 ->157        -0.12919
     153 ->157         0.65198
     153 ->159         0.19072

 Excited State   5:      Singlet-A      3.1922 eV  388.40 nm  f=0.0025  <S**2>=0.000
     151 ->157         0.58403
     151 ->159        -0.16422
     151 ->160        -0.11469
     152 ->157        -0.29850

 The electronic state is 1-A.
 Alpha  occ. eigenvalues --  -46.91972 -19.25968 -19.19522 -19.19382 -19.18505
 Alpha  occ. eigenvalues --  -14.41963 -14.41568 -14.39368 -14.38869 -10.35722
 Alpha  occ. eigenvalues --  -10.32867 -10.32822 -10.29220 -10.29161 -10.28954
 Alpha  occ. eigenvalues --  -10.28864 -10.28497 -10.28423 -10.28053 -10.27003
 Alpha  occ. eigenvalues --  -10.26907 -10.26849 -10.26624 -10.26489 -10.26402
 Alpha  occ. eigenvalues --  -10.25932 -10.25926 -10.25890 -10.25742 -10.25358
 Alpha  occ. eigenvalues --  -10.25353 -10.24943 -10.24903 -10.24665 -10.24138
 Alpha  occ. eigenvalues --  -10.23944 -10.23865 -10.23541 -10.23463 -10.23374
 Alpha  occ. eigenvalues --  -10.23315 -10.22946 -10.22369  -3.14147  -1.86989
 Alpha  occ. eigenvalues --   -1.86523  -1.86374  -1.12657  -1.04538  -1.03367
 Alpha  occ. eigenvalues --   -1.01361  -1.00050  -0.98458  -0.97449  -0.96306
 Alpha  occ. eigenvalues --   -0.86326  -0.83850  -0.83230  -0.82959  -0.81878
 Alpha  occ. eigenvalues --   -0.81098  -0.79530  -0.78698  -0.77901  -0.77186
 Alpha  occ. eigenvalues --   -0.76687  -0.75209  -0.74857  -0.72885  -0.71879
 Alpha  occ. eigenvalues --   -0.71214  -0.70608  -0.69502  -0.66806  -0.66241
 Alpha  occ. eigenvalues --   -0.63505  -0.62663  -0.62254  -0.61276  -0.60221
 Alpha  occ. eigenvalues --   -0.59732  -0.59405  -0.58792  -0.57102  -0.55277
 Alpha  occ. eigenvalues --   -0.54016  -0.53638  -0.53127  -0.52439  -0.52295
 Alpha  occ. eigenvalues --   -0.51147  -0.50220  -0.49633  -0.48911  -0.48823
 Alpha  occ. eigenvalues --   -0.48442  -0.47923  -0.47428  -0.47252  -0.46908
 Alpha  occ. eigenvalues --   -0.46754  -0.46113  -0.45345  -0.44994  -0.44629
 Alpha  occ. eigenvalues --   -0.44397  -0.44234  -0.43937  -0.43571  -0.43493
 Alpha  occ. eigenvalues --   -0.43153  -0.42880  -0.42625  -0.42391  -0.42218
 Alpha  occ. eigenvalues --   -0.41283  -0.40996  -0.40822  -0.40662  -0.40354
 Alpha  occ. eigenvalues --   -0.40226  -0.40026  -0.39823  -0.39538  -0.39165
 Alpha  occ. eigenvalues --   -0.38882  -0.38815  -0.38088  -0.37904  -0.37717
 Alpha  occ. eigenvalues --   -0.37393  -0.36714  -0.36429  -0.36327  -0.36117
 Alpha  occ. eigenvalues --   -0.35737  -0.35364  -0.35040  -0.34833  -0.34433
 Alpha  occ. eigenvalues --   -0.33434  -0.32923  -0.32261  -0.31750  -0.31360
 Alpha  occ. eigenvalues --   -0.30884  -0.29701  -0.28873  -0.28096  -0.27276
 Alpha  occ. eigenvalues --   -0.26341  -0.25961  -0.25717  -0.24702  -0.20831
 Alpha  occ. eigenvalues --   -0.18793
 Alpha virt. eigenvalues --   -0.11076  -0.05403  -0.04403  -0.02293  -0.00183
 Alpha virt. eigenvalues --    0.01054   0.01605   0.01779   0.02909   0.04028
 Alpha virt. eigenvalues --    0.04258   0.05619   0.05872   0.06479   0.06997

 Mulliken charges:
               1
     1  Mg   0.976028
     2  C    0.025899
     3  C   -0.080970
     4  C   -0.073953
     5  C   -0.083180
     6  N   -0.329363
     7  C    0.016638
     8  C   -0.071152
     9  C   -0.150587
    10  C    0.030201
    11  C   -0.007098
    12  C   -0.016930
    13  C   -0.144067
    14  H    0.053609
    15  N   -0.476725
    16  C    0.194639
    17  C   -0.154351
    18  C   -0.084336
    19  C    0.182674
    20  C    0.040979
    21  C    0.079375
    22  O   -0.249513
    23  C   -0.016731
    24  N   -0.463168
    25  C    0.047463
    26  C   -0.092917
    27  C   -0.095325
    28  C    0.144434
    29  C    0.003564
    30  C   -0.057849
    31  C   -0.061696
    32  N   -0.491461
    33  C    0.161309
    34  C   -0.194525
    35  C   -0.041162
    36  C    0.151040
    37  C    0.065303
    38  C    0.119603
    39  O   -0.236922
    40  C   -0.150835
    41  C    0.262039
    42  O   -0.277124
    43  O   -0.313767
    44  C    0.132966
    45  H    0.008542
    46  H    0.024508
    47  H    0.003472
    48  H    0.077757
    49  H    0.058416
    50  H    0.056524
    51  H    0.048246
    52  H    0.043436
    53  H    0.049168
    54  H    0.041964
    55  H    0.069733
    56  H    0.060485
    57  H    0.055791
    58  H    0.035024
    59  H    0.049195
    60  H    0.044711
    61  H    0.052600
    62  H    0.057412
    63  H    0.068388
    64  H    0.048670
    65  H    0.066009
    66  H    0.030744
    67  H    0.041164
    68  H    0.048558
    69  H    0.042940
    70  H    0.043405
    71  H    0.049989
    72  H    0.032741
    73  H    0.064532
    74  H    0.068396
    75  H    0.033598
    76  H    0.084667
    77  H    0.054483
    78  H    0.055577
    79  H    0.057101
 Sum of Mulliken charges =  -0.00000

 Dipole moment (field-independent basis, Debye):
    X=             -1.1166    Y=             -2.9011    Z=              1.1664  Tot=              3.3202
 Quadrupole moment (field-independent basis, Debye-Ang):
   XX=           -271.7309   YY=           -220.4363   ZZ=           -258.8563
   XY=            -25.3533   XZ=             -0.1006   YZ=             -0.2791

 Normal termination of Gaussian 16 at Wed Oct 13 18:33:00 2021.
