 Gaussian 16, Revision A.03,
 Gaussian 16:  ES64L-G16RevA.03 25-Dec-2016

 --------------------------------------------------------
 #p PBE1PBE/Def2SVP td=(nstates=5) density=(transition=1)
 --------------------------------------------------------

 --------------------------------
 TDDFT excited states in gaussian
 --------------------------------
 Symbolic Z-matrix:
 Charge =  0 Multiplicity = 1

                         Standard orientation:
 ---------------------------------------------------------------------
 Center     Atomic      Atomic             Coordinates (Angstroms)
 Number     Number       Type             X           Y           Z
 ---------------------------------------------------------------------
      1         12           0       19.356746    0.340009    0.508050
      2          6           0       17.307200   -1.580666   -1.642837
      3          6           0       20.413698    2.159430   -2.227683
      4          6           0       21.525258    1.966972    2.540824
      5          6           0       18.415819   -1.672874    3.219575
      6          7           0       18.929561    0.148613   -1.655950
      7          6           0       17.904825   -0.548800   -2.291224
      8          6           0       17.803469   -0.159685   -3.822802
      9          6           0       18.996122    0.820667   -3.980919
     10          6           0       19.538569    1.039863   -2.550847
     11          6           0       20.161000    0.420361   -4.961707
     12          6           0       16.383887    0.309330   -4.344831
     13          6           0       15.799888   -0.525779   -5.443878
     14          1           0       14.984556    0.254315   -6.549851
     15          7           0       20.730649    1.808750    0.155652
     16          6           0       20.995465    2.497983   -1.010357
     17          6           0       22.055364    3.464846   -0.770585
     18          6           0       22.415095    3.451626    0.606809
     19          6           0       21.522780    2.382769    1.189074
     20          6           0       22.565677    4.465591   -1.826880
     21          6           0       23.414678    4.314197    1.370552
     22          8           0       23.570079    4.264475    2.573362
     23          6           0       24.294916    5.453415    0.710740
     24          7           0       19.964566    0.097757    2.592612
     25          6           0       20.859178    0.885412    3.174977
     26          6           0       21.048313    0.539175    4.694997
     27          6           0       19.895071   -0.510405    4.949252
     28          6           0       19.353431   -0.708540    3.501269
     29          6           0       22.508162    0.107617    5.017564
     30          6           0       18.892335   -0.021287    5.975517
     31          6           0       18.441594   -1.092912    6.966565
     32          7           0       18.235752   -1.388267    0.817489
     33          6           0       17.856577   -2.041128    1.974707
     34          6           0       17.062230   -3.166240    1.587868
     35          6           0       16.770186   -3.028540    0.208203
     36          6           0       17.519878   -1.911819   -0.255769
     37          6           0       16.554486   -4.225957    2.490407
     38          6           0       15.967170   -3.565705   -0.904144
     39          8           0       15.274838   -4.572466   -1.022487
     40          6           0       16.312112   -2.515987   -2.215161
     41          6           0       16.823715   -3.272316   -3.315216
     42          8           0       17.988485   -3.303553   -3.648541
     43          8           0       15.799160   -3.853836   -4.027320
     44          6           0       16.286992   -4.696836   -5.147172
     45          1           0       20.681775    2.838607   -3.039894
     46          1           0       22.238626    2.423291    3.229513
     47          1           0       18.109943   -2.191639    4.131210
     48          1           0       18.161149   -1.046740   -4.344473
     49          1           0       18.650037    1.793945   -4.328980
     50          1           0       20.449956    1.330815   -5.487686
     51          1           0       19.790984   -0.347911   -5.640195
     52          1           0       21.047647    0.021998   -4.468091
     53          1           0       16.507617    1.350292   -4.643798
     54          1           0       15.699643    0.233884   -3.499544
     55          1           0       15.108058   -1.256031   -5.022058
     56          1           0       16.668222   -1.032633   -5.863876
     57          1           0       22.248714    5.442572   -1.463724
     58          1           0       22.000808    4.325683   -2.748842
     59          1           0       23.645979    4.492122   -1.974824
     60          1           0       23.619651    6.159133    0.225720
     61          1           0       25.149044    5.061324    0.157834
     62          1           0       24.863649    5.869295    1.541878
     63          1           0       20.828473    1.373139    5.361236
     64          1           0       20.395203   -1.435470    5.236675
     65          1           0       22.473052   -0.833421    5.567221
     66          1           0       23.083925    0.878005    5.531119
     67          1           0       23.049015   -0.071857    4.089833
     68          1           0       18.008425    0.414968    5.511392
     69          1           0       19.236772    0.826893    6.569207
     70          1           0       18.783104   -2.083369    6.665610
     71          1           0       17.351532   -1.090540    6.941087
     72          1           0       18.697668   -0.842846    7.996246
     73          1           0       16.822957   -4.158036    3.544596
     74          1           0       16.723843   -5.170146    1.971386
     75          1           0       15.502264   -3.961790    2.598652
     76          1           0       15.393770   -2.009217   -2.513059
     77          1           0       16.921592   -5.494427   -4.760234
     78          1           0       16.770232   -4.015330   -5.847215
     79          1           0       15.483025   -5.208523   -5.674804
     80         12           0      -19.432111   -0.540098   -0.311680
     81          6           0      -18.549501    2.835936   -0.728322
     82          6           0      -16.148915   -1.392164   -0.874491
     83          6           0      -20.188659   -3.551513    0.830496
     84          6           0      -22.729111    0.496636    0.508575
     85          7           0      -17.552130    0.605493   -0.493319
     86          6           0      -17.409801    2.008514   -0.649458
     87          6           0      -16.092833    2.393763   -1.185371
     88          6           0      -15.360981    0.989096   -1.319941
     89          6           0      -16.423162   -0.016808   -0.905202
     90          6           0      -14.707889    0.789930   -2.709122
     91          6           0      -15.266511    3.241595   -0.267058
     92          6           0      -15.354984    2.924546    1.233213
     93          1           0      -14.098552    3.062394    2.178498
     94          7           0      -18.341529   -2.292814   -0.074972
     95          6           0      -17.066152   -2.442025   -0.480943
     96          6           0      -16.704398   -3.830666   -0.343931
     97          6           0      -17.875717   -4.505914    0.079270
     98          6           0      -18.897596   -3.465243    0.276293
     99          6           0      -15.336845   -4.414239   -0.577401
    100          6           0      -18.008786   -6.014080    0.288399
    101          8           0      -17.065431   -6.758238    0.104620
    102          6           0      -19.193563   -6.758450    0.829091
    103          7           0      -21.107137   -1.346601    0.778682
    104          6           0      -21.203693   -2.673583    1.102955
    105          6           0      -22.666329   -3.061336    1.498980
    106          6           0      -23.337512   -1.664971    1.670188
    107          6           0      -22.353685   -0.784404    0.931344
    108          6           0      -23.433213   -3.914837    0.460164
    109          6           0      -23.365775   -1.075722    3.158944
    110          6           0      -24.652761   -0.500516    3.628467
    111          7           0      -20.477230    1.189568   -0.230296
    112          6           0      -21.791035    1.403360   -0.077241
    113          6           0      -22.158281    2.772786   -0.601342
    114          6           0      -20.874615    3.325069   -0.910583
    115          6           0      -19.881455    2.378697   -0.530206
    116          6           0      -23.514550    3.450289   -0.734723
    117          6           0      -20.231964    4.550514   -1.288728
    118          8           0      -20.701577    5.646447   -1.551294
    119          6           0      -18.679103    4.258371   -1.211523
    120          6           0      -18.125806    5.110765   -0.088401
    121          8           0      -18.326976    4.996973    1.075459
    122          8           0      -17.231211    6.004889   -0.637006
    123          6           0      -16.406508    6.698573    0.357475
    124          1           0      -15.160205   -1.669263   -1.245631
    125          1           0      -20.508156   -4.572865    1.044136
    126          1           0      -23.791151    0.712261    0.642767
    127          1           0      -16.261333    2.931115   -2.118618
    128          1           0      -14.610930    0.765645   -0.561331
    129          1           0      -13.717073    0.445859   -2.411942
    130          1           0      -14.712678    1.761140   -3.204054
    131          1           0      -15.179178   -0.000975   -3.292949
    132          1           0      -15.341937    4.311126   -0.465101
    133          1           0      -14.190405    3.172913   -0.427879
    134          1           0      -15.740978    1.905644    1.279013
    135          1           0      -16.168821    3.575559    1.552998
    136          1           0      -15.054740   -5.087238    0.232963
    137          1           0      -14.615581   -3.613093   -0.738327
    138          1           0      -15.449984   -4.988265   -1.497384
    139          1           0      -19.441545   -6.552425    1.869823
    140          1           0      -18.803391   -7.775967    0.856507
    141          1           0      -20.021334   -6.820424    0.121844
    142          1           0      -22.617268   -3.632150    2.426181
    143          1           0      -24.326833   -1.601005    1.216403
    144          1           0      -24.237075   -3.309774    0.041258
    145          1           0      -23.660988   -4.909774    0.842331
    146          1           0      -22.763817   -4.127425   -0.372624
    147          1           0      -22.571087   -0.344608    3.305621
    148          1           0      -23.115671   -1.935497    3.780739
    149          1           0      -25.014532   -0.959473    4.548332
    150          1           0      -25.445789   -0.539765    2.881340
    151          1           0      -24.554772    0.554372    3.883378
    152          1           0      -23.460590    4.363686   -0.142335
    153          1           0      -24.280037    2.708439   -0.503838
    154          1           0      -23.570177    3.784493   -1.770652
    155          1           0      -18.173206    4.456399   -2.156222
    156          1           0      -16.228053    6.103700    1.253127
    157          1           0      -16.995216    7.583442    0.599607
    158          1           0      -15.540601    7.073011   -0.187838
 ---------------------------------------------------------------------

 SCF Done:  E(RPBE1PBE) =  -4067.36644875     A.U. after   16 cycles

 Excitation energies and oscillator strengths:

 Excited State   1:      Singlet-A      1.8294 eV  677.74 nm  f=0.3577  <S**2>=0.000
     309 -> 316        0.16659
     312 -> 313        0.69532
     312 <- 313       -0.11480
 This state for optimization and/or second-order correction.
 Total Energy, E(TD-HF/TD-DFT) =  -4067.29922028
 Copying the excited state density for this state as the 1-particle RhoCI density.

 Excited State   2:      Singlet-A      1.8743 eV  661.48 nm  f=0.3653  <S**2>=0.000
     310 -> 315       -0.17476
     311 -> 314        0.69052

 Excited State   3:      Singlet-A      1.9751 eV  627.75 nm  f=0.0000  <S**2>=0.000
     312 -> 314        0.70710

 Excited State   4:      Singlet-A      1.9920 eV  622.43 nm  f=0.0000  <S**2>=0.000
     311 -> 313        0.70711

 Excited State   5:      Singlet-A      2.2446 eV  552.37 nm  f=0.1092  <S**2>=0.000
     310 -> 314        0.65160
     311 -> 315        0.25999

 The electronic state is 1-A.
 Alpha  occ. eigenvalues --  -46.91950 -46.91671 -19.25249 -19.25024 -19.20580
 Alpha  occ. eigenvalues --  -19.19986 -19.19766 -19.19518 -19.19348 -19.18409
 Alpha  occ. eigenvalues --  -14.41871 -14.41814 -14.41398 -14.41246 -14.39891
 Alpha  occ. eigenvalues --  -14.39237 -14.39106 -14.38668 -10.36228 -10.35347
 Alpha  occ. eigenvalues --  -10.33469 -10.33256 -10.32126 -10.31711 -10.29965
 Alpha  occ. eigenvalues --  -10.29328 -10.28985 -10.28721 -10.28656 -10.28603
 Alpha  occ. eigenvalues --  -10.28538 -10.28477 -10.28425 -10.28340 -10.28335
 Alpha  occ. eigenvalues --  -10.28200 -10.28054 -10.27853 -10.27573 -10.27375
 Alpha  occ. eigenvalues --  -10.27061 -10.26794 -10.26751 -10.26477 -10.26317
 Alpha  occ. eigenvalues --  -10.26210 -10.26168 -10.26134 -10.26107 -10.25922
 Alpha  occ. eigenvalues --  -10.25922 -10.25784 -10.25746 -10.25689 -10.25628
 Alpha  occ. eigenvalues --  -10.25470 -10.25383 -10.25354 -10.25338 -10.25290
 Alpha  occ. eigenvalues --  -10.25130 -10.25107 -10.25080 -10.25049 -10.24707
 Alpha  occ. eigenvalues --  -10.24431 -10.24398 -10.24113 -10.24109 -10.24070
 Alpha  occ. eigenvalues --  -10.24043 -10.24035 -10.24030 -10.23954 -10.23763
 Alpha  occ. eigenvalues --  -10.23680 -10.23643 -10.23584 -10.23236 -10.23112
 Alpha  occ. eigenvalues --  -10.22909 -10.22897 -10.22885 -10.22798 -10.22786
 Alpha  occ. eigenvalues --  -10.22764  -3.14172  -3.13780  -1.86974  -1.86629
 Alpha  occ. eigenvalues --   -1.86551  -1.86413  -1.86147  -1.86011  -1.11983
 Alpha  occ. eigenvalues --   -1.10675  -1.05949  -1.05102  -1.04691  -1.04348
 Alpha  occ. eigenvalues --   -1.03770  -1.02314  -0.99199  -0.98710  -0.98669
 Alpha  occ. eigenvalues --   -0.97898  -0.97247  -0.97011  -0.96650  -0.95656
 Alpha  occ. eigenvalues --   -0.87525  -0.86382  -0.84131  -0.83726  -0.83457
 Alpha  occ. eigenvalues --   -0.82685  -0.82676  -0.82220  -0.81829  -0.81263
 Alpha  occ. eigenvalues --   -0.81199  -0.80621  -0.80263  -0.80094  -0.78994
 Alpha  occ. eigenvalues --   -0.78622  -0.78448  -0.77991  -0.76983  -0.76803
 Alpha  occ. eigenvalues --   -0.75878  -0.75353  -0.75142  -0.75017  -0.74792
 Alpha  occ. eigenvalues --   -0.74177  -0.72496  -0.72279  -0.71783  -0.71312
 Alpha  occ. eigenvalues --   -0.71117  -0.70814  -0.70343  -0.70111  -0.69491
 Alpha  occ. eigenvalues --   -0.69090  -0.67155  -0.66809  -0.66076  -0.65753
 Alpha  occ. eigenvalues --   -0.63924  -0.63333  -0.63276  -0.63261  -0.63017
 Alpha  occ. eigenvalues --   -0.61996  -0.61536  -0.61509  -0.60280  -0.60065
 Alpha  occ. eigenvalues --   -0.59607  -0.59354  -0.59064  -0.59047  -0.58974
 Alpha  occ. eigenvalues --   -0.58887  -0.56644  -0.55803  -0.54502  -0.54418
 Alpha  occ. eigenvalues --   -0.54061  -0.53816  -0.53507  -0.53393  -0.53311
 Alpha  occ. eigenvalues --   -0.52676  -0.52621  -0.52409  -0.51994  -0.51798
 Alpha  occ. eigenvalues --   -0.51096  -0.50519  -0.50504  -0.50290  -0.49953
 Alpha  occ. eigenvalues --   -0.49654  -0.49388  -0.49182  -0.48884  -0.48673
 Alpha  occ. eigenvalues --   -0.48319  -0.47748  -0.47652  -0.47599  -0.47553
 Alpha  occ. eigenvalues --   -0.47229  -0.47173  -0.46873  -0.46783  -0.46756
 Alpha  occ. eigenvalues --   -0.46605  -0.46309  -0.46245  -0.46059  -0.45931
 Alpha  occ. eigenvalues --   -0.45759  -0.45648  -0.45520  -0.45378  -0.45228
 Alpha  occ. eigenvalues --   -0.44866  -0.44603  -0.44256  -0.44213  -0.44120
 Alpha  occ. eigenvalues --   -0.43994  -0.43983  -0.43923  -0.43509  -0.43409
 Alpha  occ. eigenvalues --   -0.43268  -0.43181  -0.43057  -0.42925  -0.42743
 Alpha  occ. eigenvalues --   -0.42689  -0.42405  -0.42211  -0.41953  -0.41874
 Alpha  occ. eigenvalues --   -0.41791  -0.41588  -0.41469  -0.41440  -0.41170
 Alpha  occ. eigenvalues --   -0.41087  -0.40916  -0.40853  -0.40679  -0.40585
 Alpha  occ. eigenvalues --   -0.40294  -0.40234  -0.39960  -0.39953  -0.39675
 Alpha  occ. eigenvalues --   -0.39464  -0.39388  -0.39198  -0.39151  -0.38903
 Alpha  occ. eigenvalues --   -0.38829  -0.38696  -0.38685  -0.38474  -0.38402
 Alpha  occ. eigenvalues --   -0.38182  -0.38018  -0.37955  -0.37642  -0.37546
 Alpha  occ. eigenvalues --   -0.37406  -0.37362  -0.37210  -0.37155  -0.37025
 Alpha  occ. eigenvalues --   -0.36989  -0.36915  -0.36703  -0.36337  -0.36090
 Alpha  occ. eigenvalues --   -0.36052  -0.35641  -0.35446  -0.35256  -0.35204
 Alpha  occ. eigenvalues --   -0.34924  -0.34778  -0.34611  -0.34370  -0.34021
 Alpha  occ. eigenvalues --   -0.33652  -0.33408  -0.32822  -0.32654  -0.32252
 Alpha  occ. eigenvalues --   -0.32237  -0.32076  -0.31942  -0.31441  -0.31254
 Alpha  occ. eigenvalues --   -0.31004  -0.30730  -0.29895  -0.29395  -0.29319
 Alpha  occ. eigenvalues --   -0.28987  -0.28719  -0.28653  -0.27141  -0.26985
 Alpha  occ. eigenvalues --   -0.26203  -0.26074  -0.25930  -0.25589  -0.25489
 Alpha  occ. eigenvalues --   -0.25236  -0.25114  -0.24680  -0.21211  -0.20945
 Alpha  occ. eigenvalues --   -0.18887  -0.18689
 Alpha virt. eigenvalues --   -0.11222  -0.11093  -0.05333  -0.05303  -0.04133
 Alpha virt. eigenvalues --   -0.03987  -0.02358  -0.01890  -0.01311   0.00113
 Alpha virt. eigenvalues --    0.00222   0.00897   0.01028   0.01116   0.01422

 Mulliken charges:
               1
     1  Mg  11.999938
     2  C    6.000383
     3  C    5.999903
     4  C    5.999696
     5  C    6.000119
     6  N    7.000165
     7  C    5.999473
     8  C    6.000176
     9  C    5.999859
    10  C    6.000491
    11  C    5.999928
    12  C    6.000016
    13  C    6.000052
    14  H    0.999900
    15  N    6.999908
    16  C    6.000449
    17  C    6.000333
    18  C    6.000213
    19  C    6.000494
    20  C    5.999940
    21  C    6.000168
    22  O    8.000418
    23  C    5.999948
    24  N    6.999996
    25  C    6.000518
    26  C    5.999842
    27  C    6.000146
    28  C    5.999576
    29  C    5.999971
    30  C    6.000056
    31  C    6.000015
    32  N    7.000056
    33  C    5.999507
    34  C    5.999580
    35  C    5.999947
    36  C    5.999499
    37  C    6.000065
    38  C    5.999742
    39  O    7.999498
    40  C    5.999822
    41  C    5.999998
    42  O    7.999857
    43  O    7.999966
    44  C    6.000039
    45  H    1.000197
    46  H    1.000136
    47  H    0.999824
    48  H    0.999942
    49  H    1.000052
    50  H    1.000045
    51  H    1.000203
    52  H    1.000024
    53  H    0.999917
    54  H    1.000047
    55  H    1.000008
    56  H    0.999980
    57  H    1.000295
    58  H    1.000256
    59  H    1.000297
    60  H    1.000111
    61  H    1.000165
    62  H    1.000237
    63  H    1.000041
    64  H    0.999974
    65  H    1.000143
    66  H    1.000013
    67  H    0.999958
    68  H    0.999983
    69  H    0.999892
    70  H    1.000020
    71  H    0.999980
    72  H    0.999947
    73  H    0.999702
    74  H    0.999708
    75  H    0.999608
    76  H    0.999847
    77  H    0.999977
    78  H    0.999946
    79  H    0.999858
    80  Mg  12.001986
    81  C    6.027559
    82  C    5.992201
    83  C    5.978631
    84  C    6.007284
    85  N    7.006576
    86  C    5.960509
    87  C    6.013896
    88  C    5.991480
    89  C    6.029026
    90  C    5.998126
    91  C    6.003501
    92  C    6.005644
    93  H    0.991543
    94  N    6.991950
    95  C    6.039875
    96  C    6.022054
    97  C    6.005471
    98  C    6.042661
    99  C    5.997277
   100  C    6.010638
   101  O    8.018411
   102  C    5.996379
   103  N    6.996089
   104  C    6.032709
   105  C    5.993687
   106  C    6.005457
   107  C    5.976722
   108  C    6.000174
   109  C    6.007192
   110  C    6.000256
   111  N    7.001202
   112  C    5.965866
   113  C    5.960918
   114  C    6.005129
   115  C    5.962844
   116  C    6.000383
   117  C    5.985012
   118  O    7.975085
   119  C    5.998012
   120  C    5.997297
   121  O    7.996297
   122  O    7.997976
   123  C    6.001218
   124  H    1.012242
   125  H    1.007576
   126  H    0.988884
   127  H    0.998693
   128  H    0.998146
   129  H    1.000136
   130  H    1.012242
   131  H    0.998210
   132  H    1.003496
   133  H    0.991443
   134  H    0.990518
   135  H    1.006640
   136  H    1.015863
   137  H    1.017109
   138  H    1.017413
   139  H    1.010487
   140  H    1.010682
   141  H    1.011129
   142  H    0.999613
   143  H    1.000250
   144  H    1.012024
   145  H    1.000082
   146  H    0.995347
   147  H    1.000765
   148  H    0.986118
   149  H    0.994713
   150  H    0.999427
   151  H    1.002946
   152  H    0.981729
   153  H    0.982685
   154  H    0.981375
   155  H    0.990255
   156  H    0.996042
   157  H    0.998630
   158  H    0.994887
 Sum of Mulliken charges = 624.00000

 Dipole moment (field-independent basis, Debye):
    X=              5.1891    Y=             -8.7282    Z=              0.1451  Tot=             10.1553
 Quadrupole moment (field-independent basis, Debye-Ang):
   XX=           -194.2652   YY=              8.6872   ZZ=             -1.0146
   XY=            170.8292   XZ=             -6.5736   YZ=              3.1172

 Normal termination of Gaussian 16 at Fri Oct 15 12:03:35 2021.
