 Gaussian 16, Revision A.03,
 Gaussian 16:  ES64L-G16RevA.03 25-Dec-2016

 --------------------------------------------------------
 #p PBE1PBE/Def2SVP td=(nstates=5) density=(transition=1)
 --------------------------------------------------------

 --------------------------------
 TDDFT excited states in gaussian
 --------------------------------
 Symbolic Z-matrix:
 Charge =  0 Multiplicity = 1

                         Standard orientation:
 ---------------------------------------------------------------------
 Center     Atomic      Atomic             Coordinates (Angstroms)
 Number     Number       Type             X           Y           Z
 ---------------------------------------------------------------------
      1         12           0      -29.777716   -0.451851    0.672236
      2          6           0      -29.467979    2.017490   -1.847769
      3          6           0      -29.481210   -2.784495   -1.914162
      4          6           0      -29.937708   -2.868981    2.888408
      5          6           0      -30.850509    1.993201    2.899513
      6          7           0      -29.474930   -0.342478   -1.589928
      7          6           0      -29.230723    0.747074   -2.369909
      8          6           0      -29.001474    0.467479   -3.865125
      9          6           0      -29.147365   -1.137145   -3.813488
     10          6           0      -29.395091   -1.404013   -2.358290
     11          6           0      -30.342418   -1.710108   -4.673561
     12          6           0      -27.596516    0.935589   -4.366712
     13          6           0      -27.365647    2.079454   -5.346539
     14          1           0      -26.242491    2.025931   -6.373745
     15          7           0      -29.644292   -2.551000    0.550501
     16          6           0      -29.595114   -3.333518   -0.612175
     17          6           0      -29.689532   -4.717591   -0.204753
     18          6           0      -29.659876   -4.780019    1.186236
     19          6           0      -29.690021   -3.364575    1.603311
     20          6           0      -29.564590   -5.775039   -1.247900
     21          6           0      -29.717149   -5.966509    2.147821
     22          8           0      -29.716492   -5.873211    3.379064
     23          6           0      -29.624950   -7.316715    1.553761
     24          7           0      -30.412699   -0.493655    2.599244
     25          6           0      -30.196564   -1.570587    3.413648
     26          6           0      -30.274864   -1.160392    4.923290
     27          6           0      -30.652530    0.313763    4.857763
     28          6           0      -30.718112    0.635837    3.338917
     29          6           0      -31.220187   -2.072859    5.771206
     30          6           0      -29.611206    1.148083    5.619142
     31          6           0      -30.091759    2.227199    6.519809
     32          7           0      -30.208932    1.574338    0.582313
     33          6           0      -30.606277    2.447780    1.562885
     34          6           0      -30.702402    3.786552    1.062746
     35          6           0      -30.157949    3.745974   -0.313326
     36          6           0      -29.870573    2.340389   -0.526697
     37          6           0      -31.211621    5.007071    1.848476
     38          6           0      -29.811137    4.505767   -1.540786
     39          8           0      -29.775232    5.731564   -1.742029
     40          6           0      -29.346579    3.392425   -2.567524
     41          6           0      -30.333367    3.628624   -3.667897
     42          8           0      -31.461026    3.166683   -3.793457
     43          8           0      -29.799751    4.337886   -4.624488
     44          6           0      -30.648086    4.828480   -5.737700
     45          1           0      -29.224171   -3.387721   -2.787003
     46          1           0      -30.054953   -3.569830    3.717182
     47          1           0      -31.120205    2.756201    3.632193
     48          1           0      -29.835132    0.906992   -4.414227
     49          1           0      -28.276088   -1.743452   -4.063147
     50          1           0      -31.104165   -1.002319   -4.999337
     51          1           0      -30.876441   -2.469837   -4.103907
     52          1           0      -29.926664   -2.186613   -5.561550
     53          1           0      -27.141766    0.070460   -4.849535
     54          1           0      -26.974621    1.230895   -3.522600
     55          1           0      -27.041832    2.861110   -4.659173
     56          1           0      -28.357290    2.195716   -5.783951
     57          1           0      -28.692493   -6.406658   -1.084479
     58          1           0      -29.472683   -5.337185   -2.242172
     59          1           0      -30.416299   -6.453939   -1.277372
     60          1           0      -28.780115   -7.353950    0.865916
     61          1           0      -30.453210   -7.532452    0.878670
     62          1           0      -29.457311   -8.115731    2.275255
     63          1           0      -29.247816   -1.329240    5.246548
     64          1           0      -31.589833    0.503603    5.380494
     65          1           0      -31.570931   -2.962699    5.248665
     66          1           0      -32.122633   -1.570238    6.117171
     67          1           0      -30.747640   -2.305130    6.725477
     68          1           0      -29.026787    1.584346    4.810065
     69          1           0      -28.963822    0.574062    6.281626
     70          1           0      -29.580462    3.123059    6.168297
     71          1           0      -29.924658    1.951833    7.561085
     72          1           0      -31.145557    2.483475    6.408461
     73          1           0      -32.285462    5.104820    1.693385
     74          1           0      -30.666289    5.885496    1.503725
     75          1           0      -31.075740    4.890603    2.923906
     76          1           0      -28.338931    3.661586   -2.883703
     77          1           0      -31.119125    4.036393   -6.318752
     78          1           0      -30.133521    5.493950   -6.430584
     79          1           0      -31.480918    5.478508   -5.471204
     80         12           0       30.311229    0.525216   -0.128830
     81          6           0       28.324449   -2.299721   -0.343243
     82          6           0       27.597633    2.311427    1.058436
     83          6           0       32.445227    2.984049    0.762813
     84          6           0       33.012435   -1.557842   -1.024377
     85          7           0       28.258661   -0.028279    0.577492
     86          6           0       27.674985   -1.167421    0.194742
     87          6           0       26.201306   -1.210399    0.704749
     88          6           0       25.900242    0.350821    0.895530
     89          6           0       27.344594    0.970014    0.768653
     90          6           0       24.817131    0.879134   -0.075688
     91          6           0       26.123776   -1.925452    2.034449
     92          6           0       24.930164   -2.850804    2.212281
     93          1           0       24.168740   -3.007518    3.582246
     94          7           0       29.980390    2.488244    0.643062
     95          6           0       28.847808    3.019246    1.135054
     96          6           0       29.139550    4.357114    1.536499
     97          6           0       30.516681    4.648735    1.297018
     98          6           0       31.066052    3.365407    0.842369
     99          6           0       28.065783    5.303436    1.928693
    100          6           0       31.179541    5.923494    1.681757
    101          8           0       30.522169    6.841576    2.143176
    102          6           0       32.668818    6.150541    1.451352
    103          7           0       32.517135    0.703378   -0.222291
    104          6           0       33.097566    1.824425    0.290166
    105          6           0       34.574998    1.641827    0.418459
    106          6           0       34.740848    0.157454   -0.159895
    107          6           0       33.363422   -0.294651   -0.577122
    108          6           0       35.422507    2.726262   -0.272792
    109          6           0       35.465313   -0.887861    0.798962
    110          6           0       36.662027   -1.724472    0.288496
    111          7           0       30.636290   -1.460830   -0.609137
    112          6           0       31.748510   -2.129964   -1.013461
    113          6           0       31.391187   -3.350567   -1.587901
    114          6           0       30.025662   -3.497313   -1.387335
    115          6           0       29.628245   -2.362234   -0.726250
    116          6           0       32.400369   -4.372929   -2.187998
    117          6           0       28.917092   -4.307728   -1.586738
    118          8           0       28.886632   -5.451021   -2.028445
    119          6           0       27.658820   -3.616954   -0.870022
    120          6           0       26.654265   -3.248117   -1.801010
    121          8           0       26.597830   -2.309380   -2.598936
    122          8           0       25.635163   -4.184279   -1.655091
    123          6           0       24.433320   -4.108634   -2.467926
    124          1           0       26.718516    2.918693    1.282884
    125          1           0       33.250353    3.683815    0.998352
    126          1           0       33.905155   -2.082291   -1.371757
    127          1           0       25.604019   -1.727245   -0.045885
    128          1           0       25.639034    0.631258    1.915419
    129          1           0       24.517705    0.121017   -0.799095
    130          1           0       25.194146    1.759977   -0.596353
    131          1           0       23.974119    1.215880    0.527226
    132          1           0       26.177245   -1.318603    2.938545
    133          1           0       27.078154   -2.445621    2.116031
    134          1           0       25.241341   -3.827608    1.842369
    135          1           0       24.238923   -2.442568    1.474987
    136          1           0       27.896602    5.865076    1.010168
    137          1           0       28.377590    5.943248    2.754457
    138          1           0       27.148277    4.805843    2.243021
    139          1           0       33.173445    5.642127    2.273057
    140          1           0       32.835768    7.210333    1.642332
    141          1           0       32.966741    5.794000    0.465424
    142          1           0       34.674634    1.682048    1.502669
    143          1           0       35.419431    0.133370   -1.012584
    144          1           0       35.826913    3.343526    0.530100
    145          1           0       34.853181    3.317613   -0.990664
    146          1           0       36.271152    2.257484   -0.770345
    147          1           0       34.724168   -1.614921    1.130596
    148          1           0       35.901519   -0.420682    1.682167
    149          1           0       36.122990   -2.589952   -0.096622
    150          1           0       37.285143   -2.043014    1.123170
    151          1           0       37.215610   -1.407397   -0.595209
    152          1           0       32.929736   -4.855504   -1.367413
    153          1           0       33.202547   -3.955100   -2.796608
    154          1           0       31.881362   -5.140778   -2.762374
    155          1           0       27.330479   -4.323106   -0.107211
    156          1           0       24.082152   -5.130182   -2.610317
    157          1           0       24.532480   -3.539168   -3.392417
    158          1           0       23.655368   -3.649083   -1.858086
 ---------------------------------------------------------------------

 SCF Done:  E(RPBE1PBE) =  -4067.35011721     A.U. after   16 cycles

 Excitation energies and oscillator strengths:

 Excited State   1:      Singlet-A      1.8605 eV  666.39 nm  f=0.3561  <S**2>=0.000
     309 -> 315        0.17776
     311 -> 313        0.69167
     311 <- 313       -0.11016
 This state for optimization and/or second-order correction.
 Total Energy, E(TD-HF/TD-DFT) =  -4067.28174394
 Copying the excited state density for this state as the 1-particle RhoCI density.

 Excited State   2:      Singlet-A      1.8639 eV  665.20 nm  f=0.3972  <S**2>=0.000
     310 -> 316       -0.18306
     312 -> 314        0.68906

 Excited State   3:      Singlet-A      1.8807 eV  659.23 nm  f=0.0000  <S**2>=0.000
     312 -> 313        0.70711

 Excited State   4:      Singlet-A      2.1581 eV  574.51 nm  f=0.0000  <S**2>=0.000
     311 -> 314        0.70711

 Excited State   5:      Singlet-A      2.2119 eV  560.54 nm  f=0.1056  <S**2>=0.000
     310 -> 314        0.65041
     312 -> 316        0.26771

 The electronic state is 1-A.
 Alpha  occ. eigenvalues --  -46.93075 -46.91969 -19.25964 -19.25275 -19.20352
 Alpha  occ. eigenvalues --  -19.19524 -19.19518 -19.19379 -19.18613 -19.18501
 Alpha  occ. eigenvalues --  -14.41960 -14.41889 -14.41564 -14.41513 -14.39478
 Alpha  occ. eigenvalues --  -14.39365 -14.38889 -14.38865 -10.36528 -10.35719
 Alpha  occ. eigenvalues --  -10.32863 -10.32818 -10.32370 -10.31795 -10.29284
 Alpha  occ. eigenvalues --  -10.29217 -10.29160 -10.29157 -10.29054 -10.28950
 Alpha  occ. eigenvalues --  -10.28880 -10.28860 -10.28787 -10.28636 -10.28493
 Alpha  occ. eigenvalues --  -10.28420 -10.28050 -10.27494 -10.27128 -10.26999
 Alpha  occ. eigenvalues --  -10.26904 -10.26846 -10.26620 -10.26485 -10.26398
 Alpha  occ. eigenvalues --  -10.26342 -10.26322 -10.26214 -10.26158 -10.26131
 Alpha  occ. eigenvalues --  -10.26014 -10.25998 -10.25967 -10.25929 -10.25922
 Alpha  occ. eigenvalues --  -10.25887 -10.25739 -10.25673 -10.25486 -10.25469
 Alpha  occ. eigenvalues --  -10.25355 -10.25349 -10.25084 -10.24940 -10.24900
 Alpha  occ. eigenvalues --  -10.24662 -10.24634 -10.24472 -10.24381 -10.24367
 Alpha  occ. eigenvalues --  -10.24134 -10.23964 -10.23941 -10.23861 -10.23649
 Alpha  occ. eigenvalues --  -10.23537 -10.23459 -10.23370 -10.23366 -10.23361
 Alpha  occ. eigenvalues --  -10.23321 -10.23312 -10.22943 -10.22545 -10.22404
 Alpha  occ. eigenvalues --  -10.22366  -3.14984  -3.14143  -1.87837  -1.87352
 Alpha  occ. eigenvalues --   -1.87198  -1.86985  -1.86520  -1.86370  -1.12653
 Alpha  occ. eigenvalues --   -1.10443  -1.04803  -1.04763  -1.04534  -1.03363
 Alpha  occ. eigenvalues --   -1.02277  -1.01358  -1.00206  -1.00046  -0.98721
 Alpha  occ. eigenvalues --   -0.98493  -0.98455  -0.97446  -0.97321  -0.96302
 Alpha  occ. eigenvalues --   -0.88289  -0.86323  -0.83846  -0.83822  -0.83399
 Alpha  occ. eigenvalues --   -0.83226  -0.82955  -0.82701  -0.82257  -0.81875
 Alpha  occ. eigenvalues --   -0.81252  -0.81094  -0.80567  -0.79729  -0.79527
 Alpha  occ. eigenvalues --   -0.78914  -0.78694  -0.77897  -0.77341  -0.77183
 Alpha  occ. eigenvalues --   -0.76684  -0.76486  -0.75840  -0.75205  -0.75101
 Alpha  occ. eigenvalues --   -0.74853  -0.72882  -0.72535  -0.71943  -0.71876
 Alpha  occ. eigenvalues --   -0.71210  -0.70883  -0.70799  -0.70605  -0.69549
 Alpha  occ. eigenvalues --   -0.69498  -0.67947  -0.66886  -0.66803  -0.66237
 Alpha  occ. eigenvalues --   -0.64339  -0.63675  -0.63501  -0.62660  -0.62559
 Alpha  occ. eigenvalues --   -0.62250  -0.61784  -0.61272  -0.60568  -0.60342
 Alpha  occ. eigenvalues --   -0.60217  -0.60073  -0.59729  -0.59436  -0.59402
 Alpha  occ. eigenvalues --   -0.58789  -0.57250  -0.57098  -0.55273  -0.55067
 Alpha  occ. eigenvalues --   -0.54523  -0.54012  -0.53718  -0.53634  -0.53522
 Alpha  occ. eigenvalues --   -0.53123  -0.52838  -0.52631  -0.52435  -0.52292
 Alpha  occ. eigenvalues --   -0.51143  -0.50954  -0.50669  -0.50216  -0.50107
 Alpha  occ. eigenvalues --   -0.49630  -0.49380  -0.48931  -0.48908  -0.48820
 Alpha  occ. eigenvalues --   -0.48438  -0.48242  -0.48003  -0.47919  -0.47425
 Alpha  occ. eigenvalues --   -0.47249  -0.47178  -0.46917  -0.46904  -0.46751
 Alpha  occ. eigenvalues --   -0.46733  -0.46529  -0.46365  -0.46115  -0.46109
 Alpha  occ. eigenvalues --   -0.45864  -0.45341  -0.45019  -0.44991  -0.44736
 Alpha  occ. eigenvalues --   -0.44626  -0.44551  -0.44393  -0.44259  -0.44230
 Alpha  occ. eigenvalues --   -0.44090  -0.43933  -0.43723  -0.43684  -0.43567
 Alpha  occ. eigenvalues --   -0.43490  -0.43149  -0.43048  -0.42961  -0.42876
 Alpha  occ. eigenvalues --   -0.42622  -0.42387  -0.42217  -0.42215  -0.41609
 Alpha  occ. eigenvalues --   -0.41528  -0.41431  -0.41344  -0.41279  -0.40993
 Alpha  occ. eigenvalues --   -0.40846  -0.40818  -0.40694  -0.40658  -0.40540
 Alpha  occ. eigenvalues --   -0.40350  -0.40244  -0.40222  -0.40102  -0.40022
 Alpha  occ. eigenvalues --   -0.39820  -0.39804  -0.39534  -0.39503  -0.39313
 Alpha  occ. eigenvalues --   -0.39161  -0.38879  -0.38812  -0.38713  -0.38464
 Alpha  occ. eigenvalues --   -0.38277  -0.38084  -0.37982  -0.37900  -0.37800
 Alpha  occ. eigenvalues --   -0.37713  -0.37390  -0.37047  -0.36892  -0.36811
 Alpha  occ. eigenvalues --   -0.36710  -0.36689  -0.36426  -0.36390  -0.36323
 Alpha  occ. eigenvalues --   -0.36114  -0.35890  -0.35733  -0.35360  -0.35217
 Alpha  occ. eigenvalues --   -0.35036  -0.34830  -0.34661  -0.34430  -0.33431
 Alpha  occ. eigenvalues --   -0.33275  -0.33184  -0.32977  -0.32920  -0.32434
 Alpha  occ. eigenvalues --   -0.32258  -0.32256  -0.31746  -0.31356  -0.31162
 Alpha  occ. eigenvalues --   -0.30880  -0.30702  -0.29821  -0.29698  -0.29567
 Alpha  occ. eigenvalues --   -0.29053  -0.28869  -0.28092  -0.27451  -0.27273
 Alpha  occ. eigenvalues --   -0.26428  -0.26338  -0.25958  -0.25933  -0.25713
 Alpha  occ. eigenvalues --   -0.25509  -0.25101  -0.24699  -0.21517  -0.20827
 Alpha  occ. eigenvalues --   -0.19223  -0.18790
 Alpha virt. eigenvalues --   -0.11659  -0.11073  -0.05775  -0.05400  -0.04414
 Alpha virt. eigenvalues --   -0.04400  -0.02289  -0.02111  -0.00435  -0.00221
 Alpha virt. eigenvalues --   -0.00178   0.00471   0.01058   0.01365   0.01609

 Mulliken charges:
               1
     1  Mg  12.000201
     2  C    5.999177
     3  C    6.000040
     4  C    6.001032
     5  C    5.999762
     6  N    6.999483
     7  C    6.001405
     8  C    5.999349
     9  C    6.000491
    10  C    5.998663
    11  C    6.000184
    12  C    5.999891
    13  C    5.999921
    14  H    1.000250
    15  N    7.000317
    16  C    5.998566
    17  C    5.999164
    18  C    5.999162
    19  C    5.998912
    20  C    6.000217
    21  C    5.999458
    22  O    7.998723
    23  C    6.000197
    24  N    7.000460
    25  C    5.998232
    26  C    6.000280
    27  C    5.999689
    28  C    6.001151
    29  C    6.000100
    30  C    5.999908
    31  C    5.999989
    32  N    6.999973
    33  C    6.001276
    34  C    6.001316
    35  C    6.000075
    36  C    6.001299
    37  C    5.999989
    38  C    6.000784
    39  O    8.001208
    40  C    6.000085
    41  C    6.000057
    42  O    8.000316
    43  O    8.000036
    44  C    5.999894
    45  H    0.999440
    46  H    0.999878
    47  H    1.000428
    48  H    1.000035
    49  H    1.000022
    50  H    0.999446
    51  H    1.000193
    52  H    0.999701
    53  H    1.000365
    54  H    0.999949
    55  H    0.999805
    56  H    0.999997
    57  H    0.999226
    58  H    0.999352
    59  H    0.999213
    60  H    0.999761
    61  H    0.999689
    62  H    0.999393
    63  H    1.000013
    64  H    1.000112
    65  H    1.000259
    66  H    0.999680
    67  H    0.999864
    68  H    0.999836
    69  H    1.000460
    70  H    0.999872
    71  H    1.000268
    72  H    0.999962
    73  H    1.000857
    74  H    1.000638
    75  H    1.000776
    76  H    1.000354
    77  H    1.000254
    78  H    1.000182
    79  H    1.000040
    80  Mg  11.997574
    81  C    5.998620
    82  C    6.025994
    83  C    6.007515
    84  C    5.977247
    85  N    7.013560
    86  C    6.018612
    87  C    5.992792
    88  C    6.009158
    89  C    5.962129
    90  C    6.000465
    91  C    5.999293
    92  C    5.997504
    93  H    1.009131
    94  N    7.001767
    95  C    5.958059
    96  C    5.976785
    97  C    5.989550
    98  C    5.966624
    99  C    6.004270
   100  C    5.990179
   101  O    7.982849
   102  C    6.002252
   103  N    6.992068
   104  C    5.973566
   105  C    6.009650
   106  C    5.991105
   107  C    6.033445
   108  C    6.003435
   109  C    5.997756
   110  C    6.002362
   111  N    7.002617
   112  C    6.030243
   113  C    6.029591
   114  C    6.003692
   115  C    6.018512
   116  C    6.001150
   117  C    6.017265
   118  O    8.031444
   119  C    6.004242
   120  C    6.001084
   121  O    8.010963
   122  O    8.001859
   123  C    5.996564
   124  H    0.994945
   125  H    0.988678
   126  H    1.005690
   127  H    0.998271
   128  H    1.000795
   129  H    0.988866
   130  H    1.004277
   131  H    0.998709
   132  H    1.010709
   133  H    0.994019
   134  H    0.995326
   135  H    1.003605
   136  H    0.978973
   137  H    0.983265
   138  H    0.979254
   139  H    0.990581
   140  H    0.987850
   141  H    0.992514
   142  H    1.000515
   143  H    1.000630
   144  H    1.000795
   145  H    1.001001
   146  H    0.989018
   147  H    0.995182
   148  H    1.009163
   149  H    0.992737
   150  H    1.002611
   151  H    1.002547
   152  H    1.019132
   153  H    1.019225
   154  H    1.011091
   155  H    1.009466
   156  H    1.003912
   157  H    1.004381
   158  H    1.007726
 Sum of Mulliken charges = 624.00000

 Dipole moment (field-independent basis, Debye):
    X=             -0.0497    Y=             -9.5034    Z=             -3.2594  Tot=             10.0469
 Quadrupole moment (field-independent basis, Debye-Ang):
   XX=              4.6263   YY=            -10.5505   ZZ=              1.5591
   XY=           -312.0966   XZ=            -99.3685   YZ=             -1.1622

 Normal termination of Gaussian 16 at Fri Oct 15 12:52:38 2021.
