 Gaussian 16, Revision A.03,
 Gaussian 16:  ES64L-G16RevA.03 25-Dec-2016

 --------------------------------------------------------
 #p PBE1PBE/Def2SVP td=(nstates=5) density=(transition=1)
 --------------------------------------------------------

 --------------------------------
 TDDFT excited states in gaussian
 --------------------------------
 Symbolic Z-matrix:
 Charge =  0 Multiplicity = 1

                         Standard orientation:
 ---------------------------------------------------------------------
 Center     Atomic      Atomic             Coordinates (Angstroms)
 Number     Number       Type             X           Y           Z
 ---------------------------------------------------------------------
      1         12           0      -32.449972   -0.277871   -0.189898
      2          6           0      -29.430708    1.476054    0.053148
      3          6           0      -30.814219   -2.861247    1.426009
      4          6           0      -35.366999   -1.895149   -0.058122
      5          6           0      -34.087174    2.698257   -1.016107
      6          7           0      -30.273515   -0.531548    0.852507
      7          6           0      -29.215393    0.285379    0.688546
      8          6           0      -27.950142   -0.228232    1.332726
      9          6           0      -28.415196   -1.727786    1.472703
     10          6           0      -29.930249   -1.756584    1.299149
     11          6           0      -27.776327   -2.587434    0.349474
     12          6           0      -27.586776    0.588241    2.579448
     13          6           0      -28.698465    1.055403    3.541938
     14          1           0      -28.456291    0.783906    5.021980
     15          7           0      -33.011126   -2.098995    0.553988
     16          6           0      -32.158280   -3.041716    1.063938
     17          6           0      -32.816156   -4.353923    1.014568
     18          6           0      -34.218296   -4.102171    0.732642
     19          6           0      -34.226250   -2.650066    0.378020
     20          6           0      -32.144867   -5.667111    1.571892
     21          6           0      -35.364757   -5.114544    0.794258
     22          8           0      -35.141366   -6.280448    0.966079
     23          6           0      -36.781041   -4.658807    0.591975
     24          7           0      -34.500692    0.434707   -0.300922
     25          6           0      -35.584728   -0.462213   -0.328187
     26          6           0      -36.969496    0.249113   -0.637580
     27          6           0      -36.483336    1.731715   -1.003823
     28          6           0      -34.902826    1.619756   -0.802868
     29          6           0      -37.986187   -0.382559   -1.714213
     30          6           0      -37.143544    2.942891   -0.199980
     31          6           0      -37.274939    4.240729   -1.140384
     32          7           0      -31.921859    1.719863   -0.502323
     33          6           0      -32.685890    2.789994   -0.921451
     34          6           0      -31.816763    3.938478   -1.147010
     35          6           0      -30.496590    3.508850   -0.854578
     36          6           0      -30.624563    2.152307   -0.383883
     37          6           0      -32.212752    5.257700   -1.756705
     38          6           0      -29.046507    3.858369   -0.703197
     39          8           0      -28.483973    4.925415   -0.808408
     40          6           0      -28.354086    2.532047   -0.171853
     41          6           0      -27.349806    2.125227   -1.214915
     42          8           0      -26.232034    2.678500   -1.367477
     43          8           0      -27.786658    0.976309   -1.858278
     44          6           0      -26.831404    0.349052   -2.709190
     45          1           0      -30.276780   -3.710910    1.852457
     46          1           0      -36.334303   -2.365279   -0.248412
     47          1           0      -34.581679    3.562211   -1.465281
     48          1           0      -27.118757   -0.250245    0.628410
     49          1           0      -28.198507   -2.244006    2.406956
     50          1           0      -28.512623   -3.354348    0.107813
     51          1           0      -26.796778   -2.951411    0.656252
     52          1           0      -27.640387   -2.152085   -0.641021
     53          1           0      -27.165704    1.520667    2.204706
     54          1           0      -26.831244    0.034576    3.137009
     55          1           0      -29.619806    0.526851    3.298513
     56          1           0      -28.791964    2.137065    3.449535
     57          1           0      -32.145582   -5.761369    2.658149
     58          1           0      -31.118773   -5.732878    1.209926
     59          1           0      -32.541620   -6.606895    1.189568
     60          1           0      -37.499523   -5.448597    0.813747
     61          1           0      -36.976023   -4.298746   -0.418390
     62          1           0      -36.895510   -3.931428    1.396103
     63          1           0      -37.411252    0.213522    0.357545
     64          1           0      -36.632794    1.941079   -2.062642
     65          1           0      -38.644714   -1.060013   -1.171863
     66          1           0      -37.454004   -0.910763   -2.504858
     67          1           0      -38.539975    0.431363   -2.182582
     68          1           0      -36.482891    3.292641    0.593232
     69          1           0      -38.094525    2.647881    0.244221
     70          1           0      -36.695016    5.072831   -0.740933
     71          1           0      -38.320300    4.543197   -1.194965
     72          1           0      -36.873487    4.203573   -2.152495
     73          1           0      -32.990791    5.702033   -1.136883
     74          1           0      -32.616468    5.091915   -2.755750
     75          1           0      -31.386221    5.967609   -1.783310
     76          1           0      -27.771767    2.868854    0.685510
     77          1           0      -27.244499   -0.587852   -3.082204
     78          1           0      -25.860953    0.265149   -2.219714
     79          1           0      -26.684929    0.901634   -3.637213
     80         12           0       32.447015    0.317070   -0.294746
     81          6           0       29.731851   -1.728150    0.352163
     82          6           0       30.867397    2.899132    1.379028
     83          6           0       35.383905    1.981255   -0.293586
     84          6           0       34.011517   -2.536713   -1.653386
     85          7           0       30.623876    0.462197    0.998847
     86          6           0       29.639785   -0.437666    0.917413
     87          6           0       28.438157    0.002339    1.809698
     88          6           0       28.689708    1.581211    1.900959
     89          6           0       30.149891    1.703727    1.319146
     90          6           0       27.581087    2.409485    1.207830
     91          6           0       28.541833   -0.625057    3.181208
     92          6           0       27.232201   -1.116791    3.777590
     93          1           0       26.894535   -0.995881    5.311374
     94          7           0       32.962217    2.297139    0.315703
     95          6           0       32.237440    3.171534    1.034655
     96          6           0       33.021676    4.353327    1.191185
     97          6           0       34.289478    4.184867    0.556219
     98          6           0       34.269672    2.784880    0.114528
     99          6           0       32.445889    5.600482    1.752781
    100          6           0       35.386785    5.187934    0.603052
    101          8           0       35.200783    6.276554    1.120961
    102          6           0       36.739652    4.922626   -0.046520
    103          7           0       34.475838   -0.221012   -1.002451
    104          6           0       35.489482    0.665206   -0.794122
    105          6           0       36.813425    0.022412   -1.052182
    106          6           0       36.348856   -1.447793   -1.485811
    107          6           0       34.840498   -1.443732   -1.460868
    108          6           0       37.706485    0.765740   -2.063127
    109          6           0       36.972931   -2.651447   -0.649936
    110          6           0       37.658707   -3.836210   -1.370120
    111          7           0       32.004932   -1.677424   -0.622300
    112          6           0       32.695362   -2.674507   -1.236614
    113          6           0       31.836226   -3.727530   -1.553729
    114          6           0       30.611106   -3.426271   -0.975158
    115          6           0       30.784698   -2.211382   -0.360919
    116          6           0       32.269727   -5.030022   -2.288152
    117          6           0       29.302882   -3.843459   -0.775247
    118          8           0       28.802537   -4.925202   -1.062717
    119          6           0       28.577727   -2.773265    0.174981
    120          6           0       27.504274   -2.120417   -0.483348
    121          8           0       27.501713   -1.228205   -1.334846
    122          8           0       26.340489   -2.678777    0.036362
    123          6           0       25.034393   -2.238382   -0.423005
    124          1           0       30.317391    3.759682    1.764958
    125          1           0       36.393972    2.391298   -0.364350
    126          1           0       34.562801   -3.325488   -2.169710
    127          1           0       27.521085   -0.310621    1.311335
    128          1           0       28.835119    1.949726    2.915899
    129          1           0       26.869899    1.773267    0.681378
    130          1           0       28.035731    3.113565    0.510200
    131          1           0       27.093272    3.009399    1.975757
    132          1           0       29.037127   -0.050096    3.963907
    133          1           0       29.275838   -1.421347    3.057802
    134          1           0       27.113031   -2.148648    3.447619
    135          1           0       26.511677   -0.523090    3.215063
    136          1           0       32.192402    6.169202    0.858324
    137          1           0       33.162708    6.122610    2.386832
    138          1           0       31.555362    5.428321    2.357380
    139          1           0       37.285347    4.295272    0.658444
    140          1           0       37.265490    5.876880   -0.026562
    141          1           0       36.614640    4.470924   -1.030528
    142          1           0       37.233066    0.049238   -0.047076
    143          1           0       36.708283   -1.703688   -2.482538
    144          1           0       38.493906    1.236475   -1.473575
    145          1           0       37.157339    1.494315   -2.660442
    146          1           0       38.190560    0.040944   -2.717231
    147          1           0       36.178631   -3.097037   -0.051245
    148          1           0       37.767619   -2.331535    0.024389
    149          1           0       36.796671   -4.491132   -1.496228
    150          1           0       38.372813   -4.321316   -0.705931
    151          1           0       37.998083   -3.729541   -2.400349
    152          1           0       32.845319   -5.640828   -1.593832
    153          1           0       32.945519   -4.902147   -3.133983
    154          1           0       31.399856   -5.602447   -2.611452
    155          1           0       28.290579   -3.322815    1.071575
    156          1           0       24.367014   -3.096600   -0.350750
    157          1           0       25.025126   -1.748134   -1.396852
    158          1           0       24.644566   -1.542793    0.320293
 ---------------------------------------------------------------------

 SCF Done:  E(RPBE1PBE) =  -4067.34941523     A.U. after   16 cycles

 Excitation energies and oscillator strengths:

 Excited State   1:      Singlet-A      1.8605 eV  666.39 nm  f=0.3868  <S**2>=0.000
     309 -> 315       -0.17793
     311 -> 313        0.69233
     311 <- 313       -0.11026
 This state for optimization and/or second-order correction.
 Total Energy, E(TD-HF/TD-DFT) =  -4067.28104206
 Copying the excited state density for this state as the 1-particle RhoCI density.

 Excited State   2:      Singlet-A      1.8968 eV  653.64 nm  f=0.3495  <S**2>=0.000
     310 -> 316        0.18776
     312 -> 314        0.68734

 Excited State   3:      Singlet-A      1.9539 eV  634.55 nm  f=0.0000  <S**2>=0.000
     312 -> 313        0.70711

 Excited State   4:      Singlet-A      2.1349 eV  580.76 nm  f=0.0000  <S**2>=0.000
     311 -> 314        0.70711

 Excited State   5:      Singlet-A      2.2365 eV  554.38 nm  f=0.1033  <S**2>=0.000
     309 -> 313        0.64747
     311 -> 315        0.26563

 The electronic state is 1-A.
 Alpha  occ. eigenvalues --  -46.93787 -46.93060 -19.26693 -19.25259 -19.20336
 Alpha  occ. eigenvalues --  -19.20279 -19.19880 -19.19509 -19.19109 -19.18599
 Alpha  occ. eigenvalues --  -14.41874 -14.41859 -14.41499 -14.41195 -14.40057
 Alpha  occ. eigenvalues --  -14.39463 -14.39222 -14.38875 -10.37021 -10.36512
 Alpha  occ. eigenvalues --  -10.33078 -10.32355 -10.32321 -10.31781 -10.30484
 Alpha  occ. eigenvalues --  -10.29300 -10.29269 -10.29184 -10.29145 -10.29039
 Alpha  occ. eigenvalues --  -10.28866 -10.28769 -10.28734 -10.28622 -10.28443
 Alpha  occ. eigenvalues --  -10.28357 -10.28057 -10.27706 -10.27503 -10.27479
 Alpha  occ. eigenvalues --  -10.27189 -10.27114 -10.27048 -10.26868 -10.26326
 Alpha  occ. eigenvalues --  -10.26306 -10.26237 -10.26222 -10.26201 -10.26144
 Alpha  occ. eigenvalues --  -10.26143 -10.26116 -10.26016 -10.26014 -10.25998
 Alpha  occ. eigenvalues --  -10.25982 -10.25953 -10.25697 -10.25658 -10.25578
 Alpha  occ. eigenvalues --  -10.25501 -10.25471 -10.25459 -10.25454 -10.25279
 Alpha  occ. eigenvalues --  -10.25205 -10.25069 -10.24620 -10.24482 -10.24459
 Alpha  occ. eigenvalues --  -10.24367 -10.24354 -10.23950 -10.23937 -10.23882
 Alpha  occ. eigenvalues --  -10.23813 -10.23798 -10.23633 -10.23602 -10.23520
 Alpha  occ. eigenvalues --  -10.23456 -10.23353 -10.23348 -10.23304 -10.22530
 Alpha  occ. eigenvalues --  -10.22389  -3.15734  -3.14969  -1.88535  -1.88127
 Alpha  occ. eigenvalues --   -1.87945  -1.87822  -1.87338  -1.87184  -1.11226
 Alpha  occ. eigenvalues --   -1.10427  -1.06142  -1.05524  -1.04788  -1.04749
 Alpha  occ. eigenvalues --   -1.02260  -1.01860  -1.00192  -0.99336  -0.98706
 Alpha  occ. eigenvalues --   -0.98479  -0.98435  -0.97683  -0.97307  -0.96630
 Alpha  occ. eigenvalues --   -0.88274  -0.86886  -0.83808  -0.83383  -0.83273
 Alpha  occ. eigenvalues --   -0.82688  -0.82592  -0.82242  -0.82003  -0.81698
 Alpha  occ. eigenvalues --   -0.81237  -0.80552  -0.80488  -0.79811  -0.79714
 Alpha  occ. eigenvalues --   -0.79101  -0.78900  -0.77663  -0.77326  -0.76868
 Alpha  occ. eigenvalues --   -0.76471  -0.76070  -0.75826  -0.75145  -0.75087
 Alpha  occ. eigenvalues --   -0.74735  -0.72521  -0.71929  -0.71840  -0.71600
 Alpha  occ. eigenvalues --   -0.70925  -0.70868  -0.70783  -0.70711  -0.69655
 Alpha  occ. eigenvalues --   -0.69534  -0.67933  -0.67307  -0.66871  -0.66468
 Alpha  occ. eigenvalues --   -0.64325  -0.64246  -0.63772  -0.63661  -0.62754
 Alpha  occ. eigenvalues --   -0.62544  -0.61768  -0.61542  -0.60554  -0.60341
 Alpha  occ. eigenvalues --   -0.60327  -0.60058  -0.59427  -0.59421  -0.59319
 Alpha  occ. eigenvalues --   -0.59163  -0.58298  -0.57234  -0.55052  -0.54564
 Alpha  occ. eigenvalues --   -0.54508  -0.53877  -0.53703  -0.53506  -0.53462
 Alpha  occ. eigenvalues --   -0.52823  -0.52819  -0.52617  -0.52300  -0.51909
 Alpha  occ. eigenvalues --   -0.50939  -0.50770  -0.50654  -0.50619  -0.50093
 Alpha  occ. eigenvalues --   -0.50065  -0.49630  -0.49366  -0.48916  -0.48835
 Alpha  occ. eigenvalues --   -0.48347  -0.48227  -0.47987  -0.47793  -0.47496
 Alpha  occ. eigenvalues --   -0.47312  -0.47164  -0.46903  -0.46719  -0.46537
 Alpha  occ. eigenvalues --   -0.46514  -0.46350  -0.46172  -0.46100  -0.46020
 Alpha  occ. eigenvalues --   -0.45848  -0.45743  -0.45337  -0.45162  -0.45005
 Alpha  occ. eigenvalues --   -0.44721  -0.44623  -0.44541  -0.44535  -0.44324
 Alpha  occ. eigenvalues --   -0.44244  -0.44121  -0.44075  -0.43709  -0.43669
 Alpha  occ. eigenvalues --   -0.43597  -0.43361  -0.43058  -0.43033  -0.42946
 Alpha  occ. eigenvalues --   -0.42219  -0.42204  -0.41963  -0.41902  -0.41596
 Alpha  occ. eigenvalues --   -0.41586  -0.41513  -0.41417  -0.41343  -0.41330
 Alpha  occ. eigenvalues --   -0.41076  -0.40832  -0.40785  -0.40678  -0.40526
 Alpha  occ. eigenvalues --   -0.40489  -0.40260  -0.40228  -0.40114  -0.40087
 Alpha  occ. eigenvalues --   -0.39950  -0.39789  -0.39616  -0.39488  -0.39298
 Alpha  occ. eigenvalues --   -0.39027  -0.38803  -0.38699  -0.38669  -0.38449
 Alpha  occ. eigenvalues --   -0.38434  -0.38263  -0.38164  -0.37988  -0.37967
 Alpha  occ. eigenvalues --   -0.37795  -0.37786  -0.37634  -0.37191  -0.37038
 Alpha  occ. eigenvalues --   -0.37032  -0.36877  -0.36851  -0.36795  -0.36675
 Alpha  occ. eigenvalues --   -0.36623  -0.36377  -0.36145  -0.35875  -0.35270
 Alpha  occ. eigenvalues --   -0.35204  -0.34834  -0.34646  -0.34186  -0.33889
 Alpha  occ. eigenvalues --   -0.33260  -0.33170  -0.33143  -0.32963  -0.32419
 Alpha  occ. eigenvalues --   -0.32250  -0.32241  -0.32207  -0.31723  -0.31371
 Alpha  occ. eigenvalues --   -0.31145  -0.30687  -0.29806  -0.29792  -0.29551
 Alpha  occ. eigenvalues --   -0.29448  -0.29038  -0.28699  -0.27437  -0.26922
 Alpha  occ. eigenvalues --   -0.26413  -0.26181  -0.26065  -0.25918  -0.25760
 Alpha  occ. eigenvalues --   -0.25495  -0.25444  -0.25086  -0.21503  -0.20978
 Alpha  occ. eigenvalues --   -0.19208  -0.19030
 Alpha virt. eigenvalues --   -0.11645  -0.11159  -0.05761  -0.05535  -0.04399
 Alpha virt. eigenvalues --   -0.04128  -0.02397  -0.02097  -0.01978  -0.00420
 Alpha virt. eigenvalues --   -0.00207  -0.00124   0.00487   0.01146   0.01380

 Mulliken charges:
               1
     1  Mg  12.000001
     2  C    5.999974
     3  C    5.999989
     4  C    6.000001
     5  C    5.999959
     6  N    6.999989
     7  C    6.000048
     8  C    6.000020
     9  C    5.999989
    10  C    6.000059
    11  C    5.999989
    12  C    6.000014
    13  C    6.000017
    14  H    0.999982
    15  N    6.999979
    16  C    6.000068
    17  C    6.000025
    18  C    5.999991
    19  C    6.000041
    20  C    5.999962
    21  C    6.000024
    22  O    8.000014
    23  C    5.999976
    24  N    7.000033
    25  C    6.000010
    26  C    5.999983
    27  C    5.999999
    28  C    5.999988
    29  C    5.999995
    30  C    6.000009
    31  C    5.999998
    32  N    7.000016
    33  C    5.999927
    34  C    5.999956
    35  C    5.999969
    36  C    5.999984
    37  C    6.000017
    38  C    6.000000
    39  O    7.999954
    40  C    5.999994
    41  C    5.999994
    42  O    8.000006
    43  O    8.000004
    44  C    6.000019
    45  H    1.000015
    46  H    0.999995
    47  H    0.999989
    48  H    1.000006
    49  H    0.999996
    50  H    0.999974
    51  H    1.000032
    52  H    1.000036
    53  H    1.000010
    54  H    0.999993
    55  H    0.999973
    56  H    1.000000
    57  H    1.000035
    58  H    1.000058
    59  H    1.000030
    60  H    1.000029
    61  H    1.000026
    62  H    1.000016
    63  H    0.999997
    64  H    1.000005
    65  H    0.999990
    66  H    1.000003
    67  H    1.000012
    68  H    1.000005
    69  H    0.999972
    70  H    1.000012
    71  H    0.999982
    72  H    1.000008
    73  H    0.999949
    74  H    0.999963
    75  H    0.999972
    76  H    0.999984
    77  H    0.999977
    78  H    0.999996
    79  H    0.999992
    80  Mg  12.002521
    81  C    6.001204
    82  C    5.973937
    83  C    5.992524
    84  C    6.022867
    85  N    6.986319
    86  C    5.981587
    87  C    6.007286
    88  C    5.990882
    89  C    6.037919
    90  C    5.999573
    91  C    6.000747
    92  C    6.002500
    93  H    0.990819
    94  N    6.997981
    95  C    6.041999
    96  C    6.023147
    97  C    6.010409
    98  C    6.033569
    99  C    5.995785
   100  C    6.009708
   101  O    8.017238
   102  C    5.997765
   103  N    7.008000
   104  C    6.026432
   105  C    5.990288
   106  C    6.008863
   107  C    5.966588
   108  C    5.996574
   109  C    6.002262
   110  C    5.997655
   111  N    6.997187
   112  C    5.969742
   113  C    5.970283
   114  C    5.996335
   115  C    5.981602
   116  C    5.998804
   117  C    5.982703
   118  O    7.968678
   119  C    5.995739
   120  C    5.998774
   121  O    7.989143
   122  O    7.998059
   123  C    6.003414
   124  H    1.005126
   125  H    1.011282
   126  H    0.994261
   127  H    1.001684
   128  H    0.999196
   129  H    1.011111
   130  H    0.995713
   131  H    1.001269
   132  H    0.989267
   133  H    1.005943
   134  H    1.004646
   135  H    0.996393
   136  H    1.021061
   137  H    1.016749
   138  H    1.020788
   139  H    1.009426
   140  H    1.012161
   141  H    1.007499
   142  H    0.999506
   143  H    0.999366
   144  H    0.999220
   145  H    0.999021
   146  H    1.010979
   147  H    1.004819
   148  H    0.990834
   149  H    1.007257
   150  H    0.997402
   151  H    0.997454
   152  H    0.980881
   153  H    0.980773
   154  H    0.988944
   155  H    0.990522
   156  H    0.996096
   157  H    0.995640
   158  H    0.992302
 Sum of Mulliken charges = 624.00000

 Dipole moment (field-independent basis, Debye):
    X=              3.9593    Y=              9.4785    Z=              2.0321  Tot=             10.4712
 Quadrupole moment (field-independent basis, Debye-Ang):
   XX=            253.0190   YY=              7.2823   ZZ=             -2.0781
   XY=            308.6181   XZ=             65.3682   YZ=             -0.7422

 Normal termination of Gaussian 16 at Thu Oct 14 22:24:53 2021.
