 Gaussian 16, Revision A.03,
 Gaussian 16:  ES64L-G16RevA.03 25-Dec-2016

 --------------------------------------------------------
 #p PBE1PBE/Def2SVP td=(nstates=5) density=(transition=1)
 --------------------------------------------------------

 --------------------------------
 TDDFT excited states in gaussian
 --------------------------------
 Symbolic Z-matrix:
 Charge =  0 Multiplicity = 1

                         Standard orientation:
 ---------------------------------------------------------------------
 Center     Atomic      Atomic             Coordinates (Angstroms)
 Number     Number       Type             X           Y           Z
 ---------------------------------------------------------------------
      1         12           0       26.221371    0.411546   -0.466747
      2          6           0       23.598348   -1.723031    0.723336
      3          6           0       28.475296   -1.988147    0.559328
      4          6           0       28.574384    2.620202   -0.977019
      5          6           0       23.765599    2.741979   -1.207486
      6          7           0       26.055754   -1.566571    0.815794
      7          6           0       24.871774   -2.217928    1.032688
      8          6           0       25.157434   -3.684202    1.454398
      9          6           0       26.741263   -3.765995    1.464537
     10          6           0       27.178920   -2.351752    0.935066
     11          6           0       27.458987   -4.080213    2.844151
     12          6           0       24.537297   -4.768968    0.533788
     13          6           0       23.862231   -5.925256    1.181352
     14          1           0       24.101156   -6.343618    2.682378
     15          7           0       28.309294    0.361761   -0.235224
     16          6           0       29.092811   -0.751189    0.068816
     17          6           0       30.509861   -0.341173    0.099676
     18          6           0       30.538674    0.990550   -0.467512
     19          6           0       29.115468    1.386949   -0.576263
     20          6           0       31.663382   -1.186455    0.548122
     21          6           0       31.725421    1.900380   -0.863341
     22          8           0       31.646050    2.893437   -1.616887
     23          6           0       33.077515    1.468481   -0.459138
     24          7           0       26.147243    2.350089   -0.939735
     25          6           0       27.315927    3.073882   -1.029472
     26          6           0       27.060958    4.476879   -1.646743
     27          6           0       25.528155    4.345972   -2.059385
     28          6           0       25.104092    3.056641   -1.377679
     29          6           0       27.371474    5.751756   -0.761002
     30          6           0       25.213175    4.306155   -3.546344
     31          6           0       24.407593    5.504539   -4.090386
     32          7           0       24.107972    0.459725   -0.475432
     33          6           0       23.254187    1.494167   -0.777292
     34          6           0       21.866763    1.094928   -0.507221
     35          6           0       21.982081   -0.177728    0.023271
     36          6           0       23.351665   -0.524306    0.027655
     37          6           0       20.609726    1.883240   -0.673746
     38          6           0       21.188303   -1.248102    0.510018
     39          8           0       19.937664   -1.426370    0.550567
     40          6           0       22.152362   -2.256253    0.973688
     41          6           0       21.852073   -2.645911    2.395797
     42          8           0       22.020917   -1.959472    3.344969
     43          8           0       21.430911   -3.909660    2.440829
     44          6           0       20.800910   -4.395464    3.621336
     45          1           0       29.256415   -2.687373    0.865455
     46          1           0       29.248459    3.442729   -1.228590
     47          1           0       23.008043    3.510318   -1.370553
     48          1           0       24.742503   -3.790245    2.457424
     49          1           0       27.078441   -4.512012    0.745533
     50          1           0       26.796595   -4.369065    3.659700
     51          1           0       27.918497   -3.148152    3.176321
     52          1           0       28.245258   -4.822616    2.704014
     53          1           0       25.273023   -5.243807   -0.116367
     54          1           0       23.763892   -4.372151   -0.123215
     55          1           0       24.148050   -6.847768    0.675094
     56          1           0       22.789113   -5.781249    1.058825
     57          1           0       32.221872   -0.656039    1.319079
     58          1           0       32.304537   -1.314272   -0.324056
     59          1           0       31.349229   -2.205206    0.777523
     60          1           0       33.107558    1.464327    0.630485
     61          1           0       33.744471    2.262862   -0.793268
     62          1           0       33.389062    0.560038   -0.973950
     63          1           0       27.660043    4.503899   -2.557506
     64          1           0       25.015565    5.208881   -1.634365
     65          1           0       27.753427    5.447402    0.212806
     66          1           0       26.533125    6.446894   -0.701630
     67          1           0       28.128641    6.331120   -1.289577
     68          1           0       24.792755    3.377393   -3.932283
     69          1           0       26.168265    4.362604   -4.067506
     70          1           0       23.591978    5.280801   -4.777710
     71          1           0       25.068312    6.035690   -4.776063
     72          1           0       23.977323    6.161784   -3.335949
     73          1           0       20.738677    2.744713   -1.329611
     74          1           0       20.344192    2.364911    0.267198
     75          1           0       19.827347    1.165929   -0.921321
     76          1           0       22.018867   -3.116882    0.318776
     77          1           0       19.804635   -3.951332    3.637867
     78          1           0       21.290041   -4.004595    4.513689
     79          1           0       20.677451   -5.478175    3.585253
     80         12           0      -26.484494   -0.229314    0.279601
     81          6           0      -23.088179   -0.603719   -0.815423
     82          6           0      -25.231274    2.395537    2.353118
     83          6           0      -29.576159    1.015056    0.706226
     84          6           0      -27.463811   -2.250087   -2.299881
     85          7           0      -24.422471    0.754786    0.651200
     86          6           0      -23.207269    0.425503    0.125522
     87          6           0      -22.059064    1.327933    0.698042
     88          6           0      -22.780901    1.961761    1.981789
     89          6           0      -24.237204    1.756638    1.596162
     90          6           0      -22.476160    1.264115    3.287577
     91          6           0      -21.454853    2.265486   -0.334214
     92          6           0      -19.909850    2.395753   -0.366108
     93          1           0      -19.176473    3.645961    0.309907
     94          7           0      -27.349990    1.456025    1.486455
     95          6           0      -26.635399    2.333707    2.328228
     96          6           0      -27.592386    3.209487    3.015462
     97          6           0      -28.895998    2.766120    2.559639
     98          6           0      -28.662631    1.796675    1.510906
     99          6           0      -27.280040    4.328936    3.935624
    100          6           0      -30.215377    3.247244    3.109396
    101          8           0      -30.201501    3.940597    4.101513
    102          6           0      -31.562716    2.911778    2.512575
    103          7           0      -28.162000   -0.507845   -0.745431
    104          6           0      -29.353770    0.014681   -0.251026
    105          6           0      -30.483823   -0.499904   -1.145719
    106          6           0      -29.828536   -1.686414   -1.943048
    107          6           0      -28.387501   -1.499218   -1.607115
    108          6           0      -31.867418   -0.836264   -0.477647
    109          6           0      -30.131502   -1.802453   -3.468502
    110          6           0      -30.685305   -3.093581   -3.976695
    111          7           0      -25.542430   -1.326659   -1.172637
    112          6           0      -26.061464   -2.182073   -2.128811
    113          6           0      -24.986767   -2.964325   -2.769720
    114          6           0      -23.793946   -2.292520   -2.295376
    115          6           0      -24.213702   -1.333239   -1.368748
    116          6           0      -25.064756   -4.104832   -3.750185
    117          6           0      -22.304883   -2.311755   -2.397012
    118          8           0      -21.580512   -2.946561   -3.109447
    119          6           0      -21.845872   -1.144623   -1.528973
    120          6           0      -20.852058   -1.674155   -0.538692
    121          8           0      -21.228826   -2.458569    0.305331
    122          8           0      -19.537846   -1.122604   -0.614065
    123          6           0      -18.598356   -1.484216    0.490418
    124          1           0      -24.882716    3.170110    3.039644
    125          1           0      -30.632892    1.285370    0.739965
    126          1           0      -27.820913   -3.029135   -2.976211
    127          1           0      -21.264363    0.734449    1.149156
    128          1           0      -22.621587    3.038576    2.036994
    129          1           0      -23.105255    0.377026    3.357449
    130          1           0      -22.644040    1.989169    4.083833
    131          1           0      -21.472497    0.870848    3.452463
    132          1           0      -21.830495    3.259082   -0.091707
    133          1           0      -21.916001    2.042099   -1.296227
    134          1           0      -19.687461    2.389968   -1.433436
    135          1           0      -19.394653    1.536330    0.063093
    136          1           0      -27.392240    3.932144    4.944164
    137          1           0      -28.059232    5.086711    3.852963
    138          1           0      -26.324646    4.850162    3.864320
    139          1           0      -32.412161    3.429071    2.958183
    140          1           0      -31.696669    1.843466    2.682917
    141          1           0      -31.710484    3.011052    1.437848
    142          1           0      -30.710873    0.387991   -1.736509
    143          1           0      -30.050942   -2.611955   -1.412842
    144          1           0      -31.748366   -0.993664    0.594675
    145          1           0      -32.333939   -1.686830   -0.974302
    146          1           0      -32.571622   -0.021031   -0.642309
    147          1           0      -29.220120   -1.580876   -4.023731
    148          1           0      -30.776613   -0.963453   -3.728957
    149          1           0      -29.908760   -3.620215   -4.531038
    150          1           0      -31.506333   -2.892798   -4.664820
    151          1           0      -31.063470   -3.804565   -3.242445
    152          1           0      -24.144842   -4.689136   -3.744927
    153          1           0      -25.247410   -3.657620   -4.727694
    154          1           0      -25.965972   -4.675288   -3.524751
    155          1           0      -21.491452   -0.360971   -2.198752
    156          1           0      -18.203983   -2.484349    0.309874
    157          1           0      -19.121457   -1.534475    1.445138
    158          1           0      -17.797949   -0.749284    0.573806
 ---------------------------------------------------------------------

 SCF Done:  E(RPBE1PBE) =  -4067.37269890     A.U. after   16 cycles

 Excitation energies and oscillator strengths:

 Excited State   1:      Singlet-A      1.8362 eV  675.20 nm  f=0.3839  <S**2>=0.000
     309 -> 316       -0.16423
     312 -> 313        0.69669
     312 <- 313       -0.11953
 This state for optimization and/or second-order correction.
 Total Energy, E(TD-HF/TD-DFT) =  -4067.30521811
 Copying the excited state density for this state as the 1-particle RhoCI density.

 Excited State   2:      Singlet-A      1.8640 eV  665.15 nm  f=0.4053  <S**2>=0.000
     310 -> 315       -0.17337
     311 -> 314        0.69404
     311 <- 314       -0.11114

 Excited State   3:      Singlet-A      1.9424 eV  638.29 nm  f=0.0000  <S**2>=0.000
     312 -> 314        0.70711

 Excited State   4:      Singlet-A      1.9843 eV  624.83 nm  f=0.0000  <S**2>=0.000
     311 -> 313        0.70711

 Excited State   5:      Singlet-A      2.2041 eV  562.53 nm  f=0.1218  <S**2>=0.000
     310 -> 314        0.66067
     311 -> 315        0.24060

 The electronic state is 1-A.
 Alpha  occ. eigenvalues --  -46.92721 -46.92304 -19.25842 -19.25530 -19.20843
 Alpha  occ. eigenvalues --  -19.19816 -19.19730 -19.19024 -19.18988 -19.18222
 Alpha  occ. eigenvalues --  -14.42111 -14.41532 -14.41342 -14.41157 -14.39339
 Alpha  occ. eigenvalues --  -14.39219 -14.38987 -14.38808 -10.37163 -10.35908
 Alpha  occ. eigenvalues --  -10.32459 -10.32297 -10.31674 -10.31576 -10.29437
 Alpha  occ. eigenvalues --  -10.29259 -10.29112 -10.29006 -10.28881 -10.28633
 Alpha  occ. eigenvalues --  -10.28545 -10.28470 -10.28255 -10.28170 -10.27956
 Alpha  occ. eigenvalues --  -10.27929 -10.27905 -10.27581 -10.27476 -10.27265
 Alpha  occ. eigenvalues --  -10.26773 -10.26741 -10.26718 -10.26686 -10.26374
 Alpha  occ. eigenvalues --  -10.26351 -10.26336 -10.26230 -10.26133 -10.26089
 Alpha  occ. eigenvalues --  -10.26076 -10.25909 -10.25858 -10.25806 -10.25750
 Alpha  occ. eigenvalues --  -10.25657 -10.25556 -10.25445 -10.25420 -10.25288
 Alpha  occ. eigenvalues --  -10.25110 -10.24994 -10.24768 -10.24703 -10.24603
 Alpha  occ. eigenvalues --  -10.24452 -10.24316 -10.24296 -10.24290 -10.24211
 Alpha  occ. eigenvalues --  -10.24054 -10.24025 -10.23918 -10.23809 -10.23687
 Alpha  occ. eigenvalues --  -10.23490 -10.23444 -10.23436 -10.23216 -10.23200
 Alpha  occ. eigenvalues --  -10.23167 -10.23011 -10.22920 -10.22864 -10.22816
 Alpha  occ. eigenvalues --  -10.22594  -3.14868  -3.14460  -1.87654  -1.87284
 Alpha  occ. eigenvalues --   -1.87248  -1.87096  -1.86849  -1.86682  -1.13307
 Alpha  occ. eigenvalues --   -1.09999  -1.06388  -1.04987  -1.04424  -1.03219
 Alpha  occ. eigenvalues --   -1.02621  -1.02540  -0.99341  -0.99223  -0.98363
 Alpha  occ. eigenvalues --   -0.98179  -0.97360  -0.97239  -0.96535  -0.96183
 Alpha  occ. eigenvalues --   -0.87780  -0.87018  -0.83712  -0.83472  -0.83126
 Alpha  occ. eigenvalues --   -0.82771  -0.82735  -0.82695  -0.81895  -0.81887
 Alpha  occ. eigenvalues --   -0.81293  -0.80628  -0.80535  -0.79945  -0.78840
 Alpha  occ. eigenvalues --   -0.78746  -0.78262  -0.77801  -0.76869  -0.76752
 Alpha  occ. eigenvalues --   -0.76348  -0.76030  -0.76012  -0.74853  -0.74832
 Alpha  occ. eigenvalues --   -0.74501  -0.72682  -0.72481  -0.71999  -0.71779
 Alpha  occ. eigenvalues --   -0.71455  -0.71080  -0.70604  -0.70582  -0.69611
 Alpha  occ. eigenvalues --   -0.69588  -0.67545  -0.67091  -0.66213  -0.65970
 Alpha  occ. eigenvalues --   -0.63900  -0.63731  -0.63392  -0.63293  -0.62331
 Alpha  occ. eigenvalues --   -0.61868  -0.61123  -0.60764  -0.60387  -0.60362
 Alpha  occ. eigenvalues --   -0.59502  -0.59443  -0.59245  -0.59124  -0.58966
 Alpha  occ. eigenvalues --   -0.58826  -0.57514  -0.56857  -0.54738  -0.54480
 Alpha  occ. eigenvalues --   -0.54339  -0.53973  -0.53910  -0.53777  -0.53489
 Alpha  occ. eigenvalues --   -0.53457  -0.52985  -0.52798  -0.52368  -0.52229
 Alpha  occ. eigenvalues --   -0.51098  -0.50877  -0.50738  -0.50183  -0.50039
 Alpha  occ. eigenvalues --   -0.49645  -0.49502  -0.48785  -0.48426  -0.48326
 Alpha  occ. eigenvalues --   -0.47980  -0.47886  -0.47755  -0.47713  -0.47636
 Alpha  occ. eigenvalues --   -0.47474  -0.47311  -0.46967  -0.46873  -0.46318
 Alpha  occ. eigenvalues --   -0.46237  -0.46205  -0.46130  -0.45937  -0.45877
 Alpha  occ. eigenvalues --   -0.45823  -0.45555  -0.45457  -0.45068  -0.44751
 Alpha  occ. eigenvalues --   -0.44610  -0.44475  -0.44422  -0.44377  -0.44295
 Alpha  occ. eigenvalues --   -0.43920  -0.43880  -0.43774  -0.43711  -0.43405
 Alpha  occ. eigenvalues --   -0.43307  -0.43260  -0.43260  -0.42978  -0.42935
 Alpha  occ. eigenvalues --   -0.42807  -0.42405  -0.42371  -0.42102  -0.41826
 Alpha  occ. eigenvalues --   -0.41652  -0.41549  -0.41499  -0.41096  -0.41014
 Alpha  occ. eigenvalues --   -0.40931  -0.40897  -0.40860  -0.40804  -0.40677
 Alpha  occ. eigenvalues --   -0.40618  -0.40596  -0.40448  -0.40065  -0.39940
 Alpha  occ. eigenvalues --   -0.39644  -0.39541  -0.39369  -0.39275  -0.39094
 Alpha  occ. eigenvalues --   -0.38591  -0.38461  -0.38427  -0.38315  -0.38248
 Alpha  occ. eigenvalues --   -0.38110  -0.38009  -0.37782  -0.37604  -0.37487
 Alpha  occ. eigenvalues --   -0.37424  -0.37416  -0.37162  -0.36847  -0.36796
 Alpha  occ. eigenvalues --   -0.36600  -0.36505  -0.36383  -0.36299  -0.36125
 Alpha  occ. eigenvalues --   -0.36014  -0.35824  -0.35639  -0.35515  -0.35196
 Alpha  occ. eigenvalues --   -0.35192  -0.34955  -0.34637  -0.34221  -0.33936
 Alpha  occ. eigenvalues --   -0.33430  -0.33200  -0.32868  -0.32673  -0.32333
 Alpha  occ. eigenvalues --   -0.32025  -0.31992  -0.31550  -0.31371  -0.31243
 Alpha  occ. eigenvalues --   -0.30897  -0.30839  -0.29772  -0.29543  -0.29485
 Alpha  occ. eigenvalues --   -0.29251  -0.28817  -0.28494  -0.27093  -0.26836
 Alpha  occ. eigenvalues --   -0.26332  -0.26125  -0.26026  -0.25676  -0.25321
 Alpha  occ. eigenvalues --   -0.25308  -0.25223  -0.24390  -0.21191  -0.21007
 Alpha  occ. eigenvalues --   -0.18930  -0.18768
 Alpha virt. eigenvalues --   -0.11385  -0.11374  -0.05045  -0.05011  -0.04356
 Alpha virt. eigenvalues --   -0.03533  -0.02388  -0.01948  -0.01536  -0.00513
 Alpha virt. eigenvalues --   -0.00195   0.00255   0.01180   0.01261   0.01659

 Mulliken charges:
               1
     1  Mg  11.999985
     2  C    6.000056
     3  C    5.999899
     4  C    5.999894
     5  C    6.000063
     6  N    7.000027
     7  C    5.999844
     8  C    6.000073
     9  C    5.999967
    10  C    6.000203
    11  C    5.999970
    12  C    6.000023
    13  C    6.000004
    14  H    0.999984
    15  N    7.000044
    16  C    6.000273
    17  C    6.000062
    18  C    6.000119
    19  C    6.000150
    20  C    5.999964
    21  C    6.000115
    22  O    8.000169
    23  C    5.999936
    24  N    6.999950
    25  C    6.000200
    26  C    5.999930
    27  C    6.000017
    28  C    5.999845
    29  C    6.000006
    30  C    6.000061
    31  C    6.000009
    32  N    6.999999
    33  C    5.999784
    34  C    5.999846
    35  C    5.999970
    36  C    5.999825
    37  C    6.000018
    38  C    5.999863
    39  O    7.999799
    40  C    6.000062
    41  C    5.999939
    42  O    8.000011
    43  O    7.999993
    44  C    6.000011
    45  H    1.000069
    46  H    1.000040
    47  H    0.999937
    48  H    1.000007
    49  H    0.999999
    50  H    1.000072
    51  H    0.999992
    52  H    1.000006
    53  H    0.999939
    54  H    1.000024
    55  H    0.999965
    56  H    1.000010
    57  H    1.000121
    58  H    1.000105
    59  H    1.000099
    60  H    1.000058
    61  H    1.000101
    62  H    1.000042
    63  H    0.999996
    64  H    1.000001
    65  H    0.999995
    66  H    1.000067
    67  H    1.000009
    68  H    0.999993
    69  H    0.999925
    70  H    0.999982
    71  H    0.999972
    72  H    1.000010
    73  H    0.999890
    74  H    0.999888
    75  H    0.999886
    76  H    0.999912
    77  H    0.999986
    78  H    0.999993
    79  H    0.999948
    80  Mg  11.999780
    81  C    5.977507
    82  C    5.999333
    83  C    6.032517
    84  C    5.999455
    85  N    6.985086
    86  C    6.028808
    87  C    5.991279
    88  C    6.008033
    89  C    5.974249
    90  C    6.005848
    91  C    5.995889
    92  C    5.999633
    93  H    1.007198
    94  N    7.003295
    95  C    5.962678
    96  C    5.975849
    97  C    5.993139
    98  C    5.961151
    99  C    6.004858
   100  C    5.988781
   101  O    7.982567
   102  C    6.002190
   103  N    7.009728
   104  C    5.962804
   105  C    6.008493
   106  C    5.989036
   107  C    6.029371
   108  C    6.000505
   109  C    5.995799
   110  C    5.998798
   111  N    6.999941
   112  C    6.031328
   113  C    6.032631
   114  C    6.001712
   115  C    6.030465
   116  C    6.000237
   117  C    6.017764
   118  O    8.024815
   119  C    6.000333
   120  C    6.005023
   121  O    8.002632
   122  O    8.001975
   123  C    5.998333
   124  H    0.987419
   125  H    0.996404
   126  H    1.013177
   127  H    1.000870
   128  H    0.999040
   129  H    0.994828
   130  H    1.001191
   131  H    0.984494
   132  H    1.010047
   133  H    0.994189
   134  H    0.996999
   135  H    0.997536
   136  H    0.980903
   137  H    0.985075
   138  H    0.981850
   139  H    0.988717
   140  H    0.989854
   141  H    0.988816
   142  H    1.000162
   143  H    1.004010
   144  H    1.003248
   145  H    0.992207
   146  H    1.003394
   147  H    0.996597
   148  H    1.011485
   149  H    0.996304
   150  H    1.006326
   151  H    1.004249
   152  H    1.015059
   153  H    1.020215
   154  H    1.015743
   155  H    1.007785
   156  H    1.000694
   157  H    1.005523
   158  H    1.004742
 Sum of Mulliken charges = 624.00000

 Dipole moment (field-independent basis, Debye):
    X=              3.6140    Y=             -7.0058    Z=             -6.9363  Tot=             10.5002
 Quadrupole moment (field-independent basis, Debye-Ang):
   XX=           -180.7111   YY=             -1.5918   ZZ=             -1.8474
   XY=            186.1698   XZ=            183.9153   YZ=             -1.8364

 Normal termination of Gaussian 16 at Fri Oct 15 10:51:12 2021.
