 Gaussian 16, Revision A.03,
 Gaussian 16:  ES64L-G16RevA.03 25-Dec-2016

 --------------------------------------------------------
 #p PBE1PBE/Def2SVP td=(nstates=5) density=(transition=1)
 --------------------------------------------------------

 --------------------------------
 TDDFT excited states in gaussian
 --------------------------------
 Symbolic Z-matrix:
 Charge =  0 Multiplicity = 1

                         Standard orientation:
 ---------------------------------------------------------------------
 Center     Atomic      Atomic             Coordinates (Angstroms)
 Number     Number       Type             X           Y           Z
 ---------------------------------------------------------------------
      1         12           0      -11.535608    0.087141   -0.594741
      2          6           0       -8.283307   -1.150207    0.264279
      3          6           0      -12.747260   -3.186469   -0.016427
      4          6           0      -14.652318    1.330167   -0.630710
      5          6           0      -10.256721    3.289708   -0.448490
      6          7           0      -10.629584   -1.969459    0.044990
      7          6           0       -9.306603   -2.129635    0.348703
      8          6           0       -9.096777   -3.478619    1.018079
      9          6           0      -10.478786   -4.152509    0.629094
     10          6           0      -11.397002   -3.077970    0.186080
     11          6           0      -10.444888   -5.287819   -0.448480
     12          6           0       -8.734441   -3.280115    2.524879
     13          6           0       -7.552151   -4.114816    3.168498
     14          1           0       -7.845751   -5.084518    4.327310
     15          7           0      -13.380319   -0.759973   -0.552733
     16          6           0      -13.701544   -2.123655   -0.322154
     17          6           0      -15.136316   -2.327653   -0.399398
     18          6           0      -15.680415   -0.990221   -0.572009
     19          6           0      -14.542737   -0.090158   -0.598686
     20          6           0      -15.746441   -3.645375   -0.159562
     21          6           0      -17.187631   -0.716255   -0.715525
     22          8           0      -17.953934   -1.713170   -0.571276
     23          6           0      -17.824252    0.656879   -1.018021
     24          7           0      -12.440947    2.059443   -0.282119
     25          6           0      -13.711336    2.324756   -0.518859
     26          6           0      -13.919969    3.799257   -0.391752
     27          6           0      -12.483491    4.387167   -0.395926
     28          6           0      -11.636240    3.157256   -0.282500
     29          6           0      -14.873213    4.556707   -1.411988
     30          6           0      -12.173903    5.461109    0.770151
     31          6           0      -11.859262    6.921933    0.364636
     32          7           0       -9.686019    0.920189   -0.386462
     33          6           0       -9.312324    2.210305   -0.347233
     34          6           0       -7.913241    2.342072   -0.165333
     35          6           0       -7.470979    1.032033    0.032810
     36          6           0       -8.601173    0.181768   -0.067061
     37          6           0       -7.043461    3.534435   -0.167015
     38          6           0       -6.277293    0.303787    0.334204
     39          8           0       -5.168080    0.734276    0.557530
     40          6           0       -6.807280   -1.251223    0.553196
     41          6           0       -6.136568   -2.145277   -0.398155
     42          8           0       -5.943808   -1.906039   -1.596957
     43          8           0       -5.804766   -3.286925    0.299746
     44          6           0       -5.114096   -4.331570   -0.454569
     45          1           0      -13.181500   -4.174493    0.143831
     46          1           0      -15.635963    1.795108   -0.541151
     47          1           0       -9.772307    4.253318   -0.620604
     48          1           0       -8.341793   -3.997484    0.426859
     49          1           0      -10.790384   -4.438605    1.634348
     50          1           0      -11.116822   -4.989711   -1.254574
     51          1           0      -10.802881   -6.253295   -0.091674
     52          1           0       -9.484753   -5.440565   -0.942286
     53          1           0       -9.682393   -3.577758    2.972541
     54          1           0       -8.567184   -2.251439    2.843386
     55          1           0       -6.824960   -3.365200    3.480002
     56          1           0       -7.006125   -4.602367    2.361448
     57          1           0      -15.353805   -3.994008    0.795919
     58          1           0      -15.394173   -4.359114   -0.903977
     59          1           0      -16.830440   -3.728806   -0.241853
     60          1           0      -17.729389    1.274517   -0.124769
     61          1           0      -18.767798    0.409330   -1.503265
     62          1           0      -17.177851    1.050661   -1.803093
     63          1           0      -14.405614    3.961097    0.569770
     64          1           0      -12.379005    4.706367   -1.432967
     65          1           0      -15.256725    5.403642   -0.842471
     66          1           0      -15.648993    3.864292   -1.738460
     67          1           0      -14.237620    4.905237   -2.226206
     68          1           0      -11.337562    5.016568    1.309358
     69          1           0      -12.990328    5.403706    1.489932
     70          1           0      -10.962096    7.309620    0.845380
     71          1           0      -12.716142    7.545027    0.622151
     72          1           0      -11.769298    7.068037   -0.711937
     73          1           0       -5.997983    3.271517   -0.324958
     74          1           0       -7.250407    3.863281    0.851549
     75          1           0       -7.543678    4.313838   -0.741694
     76          1           0       -6.745710   -1.546658    1.599975
     77          1           0       -4.247494   -3.939150   -0.987133
     78          1           0       -5.809104   -4.804753   -1.149792
     79          1           0       -4.749102   -5.082724    0.245934
     80         12           0       10.435551    0.924190   -0.499962
     81          6           0       11.869439   -2.317133   -0.690361
     82          6           0        7.487512   -0.605936    0.565356
     83          6           0        9.597619    3.846607    0.762375
     84          6           0       13.767789    2.195525   -1.326923
     85          7           0        9.848568   -1.275743    0.133726
     86          6           0       10.508915   -2.379193   -0.296918
     87          6           0        9.607873   -3.592426   -0.151845
     88          6           0        8.197664   -3.031276   -0.335264
     89          6           0        8.500329   -1.541973    0.206376
     90          6           0        7.620073   -2.955017   -1.749800
     91          6           0        9.921377   -4.328419    1.223243
     92          6           0       10.013692   -5.795472    1.067801
     93          1           0        9.364287   -6.670758    2.157350
     94          7           0        8.759742    1.583126    0.595416
     95          6           0        7.607129    0.802351    0.859740
     96          6           0        6.667020    1.675309    1.516482
     97          6           0        7.168674    3.003829    1.530876
     98          6           0        8.565728    2.888396    0.979709
     99          6           0        5.331143    1.140153    2.022423
    100          6           0        6.498645    4.184928    2.113647
    101          8           0        5.396997    4.043418    2.629859
    102          6           0        7.053898    5.565920    2.236539
    103          7           0       11.645268    2.786992   -0.234589
    104          6           0       10.912099    3.855670    0.135756
    105          6           0       11.722859    5.154172   -0.026737
    106          6           0       13.041961    4.669950   -0.854793
    107          6           0       12.819814    3.135309   -0.862008
    108          6           0       10.901514    6.376312   -0.639386
    109          6           0       14.412340    5.128756   -0.265178
    110          6           0       15.205936    4.105642    0.617034
    111          7           0       12.351741    0.179669   -0.916799
    112          6           0       13.564386    0.823999   -1.293883
    113          6           0       14.550769   -0.240389   -1.771274
    114          6           0       13.899731   -1.429709   -1.485092
    115          6           0       12.581765   -1.117158   -0.993752
    116          6           0       15.969008   -0.154779   -2.367506
    117          6           0       14.005506   -2.851682   -1.571139
    118          8           0       14.894110   -3.558409   -2.049691
    119          6           0       12.776861   -3.383754   -0.924168
    120          6           0       13.308121   -3.958656    0.408816
    121          8           0       13.598435   -3.332991    1.426279
    122          8           0       13.476719   -5.359019    0.223788
    123          6           0       14.067670   -6.101528    1.261958
    124          1           0        6.508687   -1.021955    0.813448
    125          1           0        9.158757    4.803591    1.051521
    126          1           0       14.741963    2.479326   -1.728816
    127          1           0        9.717469   -4.310661   -0.964252
    128          1           0        7.354326   -3.471909    0.195216
    129          1           0        8.122227   -3.605090   -2.465703
    130          1           0        7.456387   -1.923280   -2.061933
    131          1           0        6.629285   -3.390528   -1.615194
    132          1           0        9.101677   -4.134183    1.915040
    133          1           0       10.756782   -3.902232    1.778830
    134          1           0       11.091938   -5.940835    1.012352
    135          1           0        9.549170   -6.067625    0.120158
    136          1           0        4.490643    1.433606    1.393801
    137          1           0        5.209848    1.434754    3.063798
    138          1           0        5.336143    0.050069    2.021491
    139          1           0        7.135220    5.989505    1.235206
    140          1           0        8.020152    5.647975    2.735760
    141          1           0        6.322366    6.256280    2.654738
    142          1           0       12.038438    5.371186    0.993539
    143          1           0       12.929010    4.977161   -1.893940
    144          1           0        9.832489    6.258361   -0.462800
    145          1           0       11.091336    6.679709   -1.669642
    146          1           0       11.368547    7.235532   -0.155470
    147          1           0       14.330975    6.055559    0.302146
    148          1           0       14.999230    5.301883   -1.166900
    149          1           0       15.663710    4.855178    1.263013
    150          1           0       15.987358    3.513487    0.140263
    151          1           0       14.476074    3.507571    1.163050
    152          1           0       16.009782   -0.627121   -3.348380
    153          1           0       16.434242   -0.866524   -1.686207
    154          1           0       16.321589    0.867163   -2.229859
    155          1           0       12.374003   -4.199065   -1.525171
    156          1           0       14.179926   -7.166123    1.052946
    157          1           0       13.428120   -6.000273    2.137876
    158          1           0       15.048487   -5.647781    1.406928
 ---------------------------------------------------------------------

 SCF Done:  E(RPBE1PBE) =  -4067.31375033     A.U. after   15 cycles

 Excitation energies and oscillator strengths:

 Excited State   1:      Singlet-A      1.8280 eV  678.26 nm  f=0.0000  <S**2>=0.000
     312 -> 313        0.70707
 This state for optimization and/or second-order correction.
 Total Energy, E(TD-HF/TD-DFT) =  -4067.24657352
 Copying the excited state density for this state as the 1-particle RhoCI density.

 Excited State   2:      Singlet-A      1.8394 eV  674.06 nm  f=0.4742  <S**2>=0.000
     310 -> 315        0.18351
     311 -> 313       -0.16084
     312 -> 314        0.66838

 Excited State   3:      Singlet-A      1.8646 eV  664.95 nm  f=0.2720  <S**2>=0.000
     309 -> 316       -0.17582
     311 -> 313        0.67357
     312 -> 314        0.15863
     311 <- 313       -0.10636

 Excited State   4:      Singlet-A      1.9935 eV  621.94 nm  f=0.0000  <S**2>=0.000
     311 -> 314        0.70708

 Excited State   5:      Singlet-A      2.1951 eV  564.82 nm  f=0.0615  <S**2>=0.000
     310 -> 314        0.63414
     312 -> 315       -0.30017

 The electronic state is 1-A.
 Alpha  occ. eigenvalues --  -46.94590 -46.92266 -19.26855 -19.25299 -19.21516
 Alpha  occ. eigenvalues --  -19.20713 -19.19927 -19.19000 -19.18403 -19.17706
 Alpha  occ. eigenvalues --  -14.41785 -14.41416 -14.41364 -14.40940 -14.39773
 Alpha  occ. eigenvalues --  -14.39578 -14.39419 -14.39353 -10.37577 -10.37018
 Alpha  occ. eigenvalues --  -10.32545 -10.32456 -10.31544 -10.31170 -10.29634
 Alpha  occ. eigenvalues --  -10.29540 -10.29139 -10.29114 -10.28905 -10.28902
 Alpha  occ. eigenvalues --  -10.28607 -10.28506 -10.28468 -10.28254 -10.28186
 Alpha  occ. eigenvalues --  -10.28089 -10.28020 -10.28007 -10.27780 -10.27408
 Alpha  occ. eigenvalues --  -10.26975 -10.26912 -10.26729 -10.26561 -10.26452
 Alpha  occ. eigenvalues --  -10.26297 -10.26286 -10.26269 -10.26138 -10.26110
 Alpha  occ. eigenvalues --  -10.25788 -10.25769 -10.25613 -10.25583 -10.25423
 Alpha  occ. eigenvalues --  -10.25397 -10.25382 -10.25334 -10.25250 -10.25211
 Alpha  occ. eigenvalues --  -10.25161 -10.25107 -10.25079 -10.25074 -10.25050
 Alpha  occ. eigenvalues --  -10.24884 -10.24870 -10.24779 -10.24778 -10.24666
 Alpha  occ. eigenvalues --  -10.24468 -10.24276 -10.24216 -10.24132 -10.23987
 Alpha  occ. eigenvalues --  -10.23887 -10.23759 -10.23745 -10.23646 -10.23484
 Alpha  occ. eigenvalues --  -10.23040 -10.22985 -10.22610 -10.22556 -10.22509
 Alpha  occ. eigenvalues --  -10.22256  -3.16378  -3.14399  -1.89155  -1.88802
 Alpha  occ. eigenvalues --   -1.88553  -1.87228  -1.86761  -1.86639  -1.11237
 Alpha  occ. eigenvalues --   -1.10481  -1.05537  -1.04188  -1.04003  -1.03378
 Alpha  occ. eigenvalues --   -1.02900  -1.01965  -1.00087  -0.99378  -0.98708
 Alpha  occ. eigenvalues --   -0.98311  -0.97968  -0.97382  -0.97007  -0.95875
 Alpha  occ. eigenvalues --   -0.88664  -0.87458  -0.83645  -0.83352  -0.82923
 Alpha  occ. eigenvalues --   -0.82585  -0.82391  -0.82261  -0.82001  -0.81790
 Alpha  occ. eigenvalues --   -0.81461  -0.81076  -0.80319  -0.79796  -0.78967
 Alpha  occ. eigenvalues --   -0.78919  -0.78086  -0.77859  -0.76953  -0.76885
 Alpha  occ. eigenvalues --   -0.76191  -0.75774  -0.75679  -0.75049  -0.74765
 Alpha  occ. eigenvalues --   -0.74529  -0.72552  -0.72267  -0.71938  -0.71496
 Alpha  occ. eigenvalues --   -0.71170  -0.71084  -0.70562  -0.70249  -0.69687
 Alpha  occ. eigenvalues --   -0.69478  -0.67640  -0.67083  -0.66642  -0.66221
 Alpha  occ. eigenvalues --   -0.64188  -0.64137  -0.63815  -0.63068  -0.62824
 Alpha  occ. eigenvalues --   -0.61605  -0.61194  -0.61159  -0.60562  -0.60132
 Alpha  occ. eigenvalues --   -0.59748  -0.59626  -0.59354  -0.59269  -0.59117
 Alpha  occ. eigenvalues --   -0.59010  -0.57486  -0.56687  -0.54692  -0.54529
 Alpha  occ. eigenvalues --   -0.54389  -0.54230  -0.54029  -0.53816  -0.53447
 Alpha  occ. eigenvalues --   -0.53212  -0.52899  -0.52808  -0.52197  -0.51484
 Alpha  occ. eigenvalues --   -0.50752  -0.50569  -0.50480  -0.50405  -0.50146
 Alpha  occ. eigenvalues --   -0.50141  -0.49418  -0.49348  -0.49095  -0.49072
 Alpha  occ. eigenvalues --   -0.48295  -0.48203  -0.47945  -0.47873  -0.47560
 Alpha  occ. eigenvalues --   -0.47539  -0.47229  -0.47077  -0.46657  -0.46581
 Alpha  occ. eigenvalues --   -0.46371  -0.46287  -0.46105  -0.45904  -0.45885
 Alpha  occ. eigenvalues --   -0.45842  -0.45728  -0.45143  -0.45065  -0.44933
 Alpha  occ. eigenvalues --   -0.44697  -0.44558  -0.44505  -0.44422  -0.44200
 Alpha  occ. eigenvalues --   -0.44010  -0.43938  -0.43676  -0.43494  -0.43455
 Alpha  occ. eigenvalues --   -0.43132  -0.43039  -0.42838  -0.42540  -0.42424
 Alpha  occ. eigenvalues --   -0.42408  -0.42334  -0.42305  -0.42123  -0.42120
 Alpha  occ. eigenvalues --   -0.41754  -0.41729  -0.41530  -0.41352  -0.41112
 Alpha  occ. eigenvalues --   -0.40759  -0.40707  -0.40668  -0.40537  -0.40490
 Alpha  occ. eigenvalues --   -0.40448  -0.40350  -0.40090  -0.40026  -0.39973
 Alpha  occ. eigenvalues --   -0.39820  -0.39763  -0.39294  -0.39213  -0.39138
 Alpha  occ. eigenvalues --   -0.38831  -0.38542  -0.38467  -0.38412  -0.38331
 Alpha  occ. eigenvalues --   -0.38234  -0.38075  -0.38017  -0.37902  -0.37754
 Alpha  occ. eigenvalues --   -0.37737  -0.37627  -0.37199  -0.37165  -0.36893
 Alpha  occ. eigenvalues --   -0.36403  -0.36326  -0.36102  -0.36031  -0.35896
 Alpha  occ. eigenvalues --   -0.35771  -0.35701  -0.35678  -0.35278  -0.35258
 Alpha  occ. eigenvalues --   -0.35156  -0.34857  -0.33992  -0.33914  -0.33719
 Alpha  occ. eigenvalues --   -0.33431  -0.33204  -0.33198  -0.32811  -0.32628
 Alpha  occ. eigenvalues --   -0.32572  -0.32535  -0.31509  -0.31500  -0.31233
 Alpha  occ. eigenvalues --   -0.30839  -0.30719  -0.29962  -0.29913  -0.29348
 Alpha  occ. eigenvalues --   -0.29250  -0.28869  -0.28614  -0.26970  -0.26661
 Alpha  occ. eigenvalues --   -0.26162  -0.26080  -0.25780  -0.25681  -0.25181
 Alpha  occ. eigenvalues --   -0.25125  -0.24883  -0.24724  -0.21124  -0.20902
 Alpha  occ. eigenvalues --   -0.18921  -0.18657
 Alpha virt. eigenvalues --   -0.11326  -0.10985  -0.05908  -0.05198  -0.04284
 Alpha virt. eigenvalues --   -0.03902  -0.03042  -0.02084  -0.02016  -0.00539
 Alpha virt. eigenvalues --   -0.00178   0.00177   0.00877   0.00919   0.01741

 Mulliken charges:
               1
     1  Mg  12.000000
     2  C    6.000000
     3  C    6.000000
     4  C    6.000000
     5  C    6.000000
     6  N    7.000000
     7  C    6.000000
     8  C    6.000000
     9  C    6.000000
    10  C    6.000000
    11  C    6.000000
    12  C    6.000000
    13  C    6.000000
    14  H    1.000000
    15  N    7.000000
    16  C    6.000000
    17  C    6.000000
    18  C    6.000000
    19  C    6.000000
    20  C    6.000000
    21  C    6.000000
    22  O    8.000000
    23  C    6.000000
    24  N    7.000000
    25  C    6.000000
    26  C    6.000000
    27  C    6.000000
    28  C    6.000000
    29  C    6.000000
    30  C    6.000000
    31  C    6.000000
    32  N    7.000000
    33  C    6.000000
    34  C    6.000000
    35  C    6.000000
    36  C    6.000000
    37  C    6.000000
    38  C    6.000000
    39  O    8.000000
    40  C    6.000000
    41  C    6.000000
    42  O    8.000000
    43  O    8.000000
    44  C    6.000000
    45  H    1.000000
    46  H    1.000000
    47  H    1.000000
    48  H    1.000000
    49  H    1.000000
    50  H    1.000000
    51  H    1.000000
    52  H    1.000000
    53  H    1.000000
    54  H    1.000000
    55  H    1.000000
    56  H    1.000000
    57  H    1.000000
    58  H    1.000000
    59  H    1.000000
    60  H    1.000000
    61  H    1.000000
    62  H    1.000000
    63  H    1.000000
    64  H    1.000000
    65  H    1.000000
    66  H    1.000000
    67  H    1.000000
    68  H    1.000000
    69  H    1.000000
    70  H    1.000000
    71  H    1.000000
    72  H    1.000000
    73  H    1.000000
    74  H    1.000000
    75  H    1.000000
    76  H    1.000000
    77  H    1.000000
    78  H    1.000000
    79  H    1.000000
    80  Mg  12.000000
    81  C    6.000000
    82  C    6.000000
    83  C    6.000000
    84  C    6.000000
    85  N    7.000000
    86  C    6.000000
    87  C    6.000000
    88  C    6.000000
    89  C    6.000000
    90  C    6.000000
    91  C    6.000000
    92  C    6.000000
    93  H    1.000000
    94  N    7.000000
    95  C    6.000000
    96  C    6.000000
    97  C    6.000000
    98  C    6.000000
    99  C    6.000000
   100  C    6.000000
   101  O    8.000000
   102  C    6.000000
   103  N    7.000000
   104  C    6.000000
   105  C    6.000000
   106  C    6.000000
   107  C    6.000000
   108  C    6.000000
   109  C    6.000000
   110  C    6.000000
   111  N    7.000000
   112  C    6.000000
   113  C    6.000000
   114  C    6.000000
   115  C    6.000000
   116  C    6.000000
   117  C    6.000000
   118  O    8.000000
   119  C    6.000000
   120  C    6.000000
   121  O    8.000000
   122  O    8.000000
   123  C    6.000000
   124  H    1.000000
   125  H    1.000000
   126  H    1.000000
   127  H    1.000000
   128  H    1.000000
   129  H    1.000000
   130  H    1.000000
   131  H    1.000000
   132  H    1.000000
   133  H    1.000000
   134  H    1.000000
   135  H    1.000000
   136  H    1.000000
   137  H    1.000000
   138  H    1.000000
   139  H    1.000000
   140  H    1.000000
   141  H    1.000000
   142  H    1.000000
   143  H    1.000000
   144  H    1.000000
   145  H    1.000000
   146  H    1.000000
   147  H    1.000000
   148  H    1.000000
   149  H    1.000000
   150  H    1.000000
   151  H    1.000000
   152  H    1.000000
   153  H    1.000000
   154  H    1.000000
   155  H    1.000000
   156  H    1.000000
   157  H    1.000000
   158  H    1.000000
 Sum of Mulliken charges = 624.00000

 Dipole moment (field-independent basis, Debye):
    X=             -0.0000    Y=              0.0000    Z=              0.0000  Tot=              0.0000
 Quadrupole moment (field-independent basis, Debye-Ang):
   XX=             -0.0000   YY=              0.0000   ZZ=             -0.0000
   XY=              0.0000   XZ=              0.0000   YZ=              0.0000

 Normal termination of Gaussian 16 at Thu Oct 14 10:07:36 2021.
