 Gaussian 16, Revision A.03,
 Gaussian 16:  ES64L-G16RevA.03 25-Dec-2016

 ---------------------------------------------------
 #p PBE1PBE/Def2SVP td=(nstates=5) density=(current)
 ---------------------------------------------------

 --------------------------------
 TDDFT excited states in gaussian
 --------------------------------
 Symbolic Z-matrix:
 Charge =  0 Multiplicity = 1

                         Standard orientation:
 ---------------------------------------------------------------------
 Center     Atomic      Atomic             Coordinates (Angstroms)
 Number     Number       Type             X           Y           Z
 ---------------------------------------------------------------------
      1         12           0       -0.814466    0.279487    0.038734
      2          6           0        2.849255    0.177329    0.102872
      3          6           0       -0.706268   -3.207314    0.364995
      4          6           0       -4.049110    0.245399   -0.365615
      5          6           0       -0.681427    3.703976   -0.092062
      6          7           0        0.851497   -1.322674    0.003368
      7          6           0        2.290716   -1.147908    0.155054
      8          6           0        3.074161   -2.475572    0.237138
      9          6           0        1.825625   -3.526331    0.104616
     10          6           0        0.545057   -2.669414    0.142045
     11          6           0        1.906099   -4.420938   -1.117068
     12          6           0        3.924757   -2.531503    1.542084
     13          6           0        4.491149   -3.877194    1.882384
     14          1           0        5.925157   -3.992262    2.349342
     15          7           0       -2.233766   -1.273881   -0.023884
     16          6           0       -2.007191   -2.645439    0.137605
     17          6           0       -3.279631   -3.363326    0.090488
     18          6           0       -4.304698   -2.352700   -0.121190
     19          6           0       -3.575294   -1.032407   -0.183652
     20          6           0       -3.452836   -4.908082    0.329688
     21          6           0       -5.774400   -2.466870   -0.310741
     22          8           0       -6.539307   -1.521905   -0.451127
     23          6           0       -6.429396   -3.782592   -0.220056
     24          7           0       -2.145640    1.719054   -0.097812
     25          6           0       -3.427086    1.482585   -0.384650
     26          6           0       -4.257283    2.780074   -0.524714
     27          6           0       -3.276386    3.809048   -0.002131
     28          6           0       -1.895163    3.056098   -0.124262
     29          6           0       -4.706843    3.055882   -1.954873
     30          6           0       -3.405218    4.446902    1.356901
     31          6           0       -3.284074    3.478023    2.513673
     32          7           0        0.721106    1.680625   -0.090044
     33          6           0        0.596385    3.080550   -0.034285
     34          6           0        1.913329    3.667509   -0.065829
     35          6           0        2.757657    2.534827    0.063407
     36          6           0        2.004646    1.345638    0.031035
     37          6           0        2.294495    5.118287   -0.015820
     38          6           0        4.203083    2.193677    0.240810
     39          8           0        5.198922    2.923989    0.431828
     40          6           0        4.270774    0.668128    0.233963
     41          6           0        5.233103    0.191524   -0.856030
     42          8           0        5.165597    0.308986   -2.115205
     43          8           0        6.186119   -0.563734   -0.239015
     44          6           0        7.181181   -1.198388   -1.132840
     45          1           0       -0.676040   -4.255124    0.667792
     46          1           0       -5.122438    0.253339   -0.566271
     47          1           0       -0.561985    4.787504   -0.158282
     48          1           0        3.785629   -2.434669   -0.587577
     49          1           0        1.753813   -4.103817    1.026297
     50          1           0        1.915102   -5.459407   -0.784770
     51          1           0        2.854134   -4.190959   -1.602021
     52          1           0        1.254019   -4.186109   -1.958068
     53          1           0        3.306030   -2.068853    2.311782
     54          1           0        4.763376   -1.843132    1.436656
     55          1           0        4.512527   -4.621000    1.086228
     56          1           0        3.954960   -4.283469    2.739539
     57          1           0       -4.072172   -4.979869    1.224232
     58          1           0       -2.512351   -5.427233    0.513645
     59          1           0       -3.955835   -5.296207   -0.556095
     60          1           0       -5.897130   -4.577312   -0.743160
     61          1           0       -7.396568   -3.617406   -0.693509
     62          1           0       -6.338715   -4.043202    0.834001
     63          1           0       -5.145055    2.657244    0.095772
     64          1           0       -3.246120    4.701129   -0.628365
     65          1           0       -5.729294    3.430914   -1.928173
     66          1           0       -4.687098    2.148220   -2.557138
     67          1           0       -4.144248    3.891962   -2.371832
     68          1           0       -4.330262    5.023982    1.368288
     69          1           0       -2.562936    5.108455    1.558733
     70          1           0       -4.059930    3.636036    3.261894
     71          1           0       -2.354280    3.599787    3.069784
     72          1           0       -3.361387    2.428152    2.230737
     73          1           0        3.015660    5.278993    0.785176
     74          1           0        1.536070    5.889461    0.118804
     75          1           0        2.774834    5.350072   -0.966655
     76          1           0        4.721171    0.345733    1.173175
     77          1           0        6.920848   -2.245105   -1.288660
     78          1           0        8.079965   -0.989731   -0.552519
     79          1           0        7.316089   -0.647378   -2.064470
 ---------------------------------------------------------------------

 SCF Done:  E(RPBE1PBE) =  -2033.69869960     A.U. after   16 cycles

 Excitation energies and oscillator strengths:

 Excited State   1:      Singlet-A      1.8175 eV  682.19 nm  f=0.3872  <S**2>=0.000
     155 ->158        -0.16213
     156 ->157         0.69598
     156 <-157        -0.11405
 This state for optimization and/or second-order correction.
 Total Energy, E(TD-HF/TD-DFT) =  -2033.63190946
 Copying the excited state density for this state as the 1-particle RhoCI density.

 Excited State   2:      Singlet-A      2.1799 eV  568.77 nm  f=0.1284  <S**2>=0.000
     155 ->157         0.66143
     156 ->158         0.23369

 Excited State   3:      Singlet-A      2.8570 eV  433.97 nm  f=0.0022  <S**2>=0.000
     153 ->157         0.28865
     154 ->157         0.62693

 Excited State   4:      Singlet-A      2.8792 eV  430.62 nm  f=0.0012  <S**2>=0.000
     153 ->157         0.61717
     153 ->159        -0.12673
     154 ->157        -0.29958

 Excited State   5:      Singlet-A      2.9392 eV  421.82 nm  f=0.0001  <S**2>=0.000
     151 ->157         0.37491
     152 ->157         0.56744
     152 ->159         0.10445

 The electronic state is 1-A.
 Alpha  occ. eigenvalues --  -46.91178 -19.26527 -19.20023 -19.18916 -19.18788
 Alpha  occ. eigenvalues --  -14.42102 -14.41673 -14.39534 -14.38688 -10.37109
 Alpha  occ. eigenvalues --  -10.32002 -10.31627 -10.29928 -10.29221 -10.29063
 Alpha  occ. eigenvalues --  -10.28810 -10.28664 -10.28589 -10.28158 -10.27869
 Alpha  occ. eigenvalues --  -10.27329 -10.26849 -10.26817 -10.26585 -10.26571
 Alpha  occ. eigenvalues --  -10.26474 -10.26340 -10.25832 -10.25723 -10.25491
 Alpha  occ. eigenvalues --  -10.25140 -10.25109 -10.24858 -10.24720 -10.24484
 Alpha  occ. eigenvalues --  -10.23706 -10.23563 -10.23349 -10.23273 -10.23076
 Alpha  occ. eigenvalues --  -10.22936 -10.22738 -10.21992  -3.13495  -1.86342
 Alpha  occ. eigenvalues --   -1.85882  -1.85720  -1.10886  -1.04912  -1.02711
 Alpha  occ. eigenvalues --   -1.00670  -0.99675  -0.97719  -0.96742  -0.95169
 Alpha  occ. eigenvalues --   -0.86781  -0.84008  -0.83142  -0.82966  -0.81634
 Alpha  occ. eigenvalues --   -0.81095  -0.80353  -0.79031  -0.78421  -0.77237
 Alpha  occ. eigenvalues --   -0.76322  -0.75826  -0.74419  -0.72676  -0.71635
 Alpha  occ. eigenvalues --   -0.71218  -0.70341  -0.69822  -0.67309  -0.66345
 Alpha  occ. eigenvalues --   -0.64601  -0.63831  -0.62070  -0.61641  -0.59598
 Alpha  occ. eigenvalues --   -0.59245  -0.58768  -0.58393  -0.56597  -0.54683
 Alpha  occ. eigenvalues --   -0.53809  -0.53724  -0.52929  -0.52300  -0.51962
 Alpha  occ. eigenvalues --   -0.50830  -0.50465  -0.50002  -0.49800  -0.49366
 Alpha  occ. eigenvalues --   -0.48959  -0.47873  -0.47508  -0.47360  -0.47094
 Alpha  occ. eigenvalues --   -0.46822  -0.45837  -0.45432  -0.45182  -0.45016
 Alpha  occ. eigenvalues --   -0.44823  -0.44509  -0.43956  -0.43525  -0.43491
 Alpha  occ. eigenvalues --   -0.43233  -0.42954  -0.42766  -0.42436  -0.42172
 Alpha  occ. eigenvalues --   -0.41747  -0.41497  -0.41342  -0.40917  -0.40719
 Alpha  occ. eigenvalues --   -0.40510  -0.40215  -0.39708  -0.39266  -0.39161
 Alpha  occ. eigenvalues --   -0.39101  -0.38858  -0.38373  -0.37924  -0.37493
 Alpha  occ. eigenvalues --   -0.37366  -0.37061  -0.36704  -0.36497  -0.36097
 Alpha  occ. eigenvalues --   -0.35749  -0.35369  -0.34861  -0.34215  -0.34015
 Alpha  occ. eigenvalues --   -0.33862  -0.32348  -0.32191  -0.31830  -0.31598
 Alpha  occ. eigenvalues --   -0.31200  -0.29548  -0.29145  -0.28632  -0.27095
 Alpha  occ. eigenvalues --   -0.25868  -0.25799  -0.25399  -0.25029  -0.21176
 Alpha  occ. eigenvalues --   -0.19121
 Alpha virt. eigenvalues --   -0.11711  -0.05250  -0.03887  -0.02218  -0.00339
 Alpha virt. eigenvalues --    0.00078   0.01457   0.01930   0.02824   0.03675
 Alpha virt. eigenvalues --    0.04173   0.05430   0.05924   0.06267   0.06513

 Mulliken charges:
               1
     1  Mg   0.976515
     2  C   -0.020366
     3  C   -0.077258
     4  C   -0.083875
     5  C   -0.072944
     6  N   -0.406591
     7  C    0.034153
     8  C   -0.089279
     9  C   -0.141831
    10  C    0.108585
    11  C    0.046041
    12  C   -0.025688
    13  C   -0.143110
    14  H    0.037431
    15  N   -0.499689
    16  C    0.169234
    17  C   -0.180541
    18  C   -0.063049
    19  C    0.168042
    20  C    0.051847
    21  C    0.017583
    22  O   -0.256186
    23  C   -0.008885
    24  N   -0.467947
    25  C    0.123703
    26  C   -0.111014
    27  C   -0.100212
    28  C    0.140773
    29  C    0.037197
    30  C   -0.003817
    31  C   -0.086885
    32  N   -0.488691
    33  C    0.098632
    34  C   -0.154969
    35  C   -0.105399
    36  C    0.188296
    37  C    0.055807
    38  C    0.174587
    39  O   -0.247289
    40  C   -0.106857
    41  C    0.302811
    42  O   -0.292352
    43  O   -0.368121
    44  C    0.110270
    45  H   -0.001070
    46  H    0.025100
    47  H    0.006705
    48  H    0.068010
    49  H    0.048664
    50  H    0.051009
    51  H    0.028260
    52  H    0.054350
    53  H    0.043601
    54  H    0.074208
    55  H    0.059599
    56  H    0.061699
    57  H    0.065204
    58  H    0.044643
    59  H    0.070994
    60  H    0.031858
    61  H    0.064452
    62  H    0.063135
    63  H    0.053017
    64  H    0.028429
    65  H    0.042006
    66  H    0.056862
    67  H    0.041888
    68  H    0.043866
    69  H    0.039909
    70  H    0.035596
    71  H    0.041201
    72  H    0.056738
    73  H    0.067208
    74  H    0.031851
    75  H    0.062235
    76  H    0.086257
    77  H    0.069136
    78  H    0.064548
    79  H    0.080168
 Sum of Mulliken charges =  -0.00000

 Dipole moment (field-independent basis, Debye):
    X=             -1.3943    Y=             -3.6919    Z=              1.8127  Tot=              4.3428
 Quadrupole moment (field-independent basis, Debye-Ang):
   XX=           -277.4334   YY=           -220.1046   ZZ=           -260.5118
   XY=            -29.5662   XZ=             -0.7570   YZ=             -0.2643

 Normal termination of Gaussian 16 at Wed Oct 13 16:26:13 2021.
