 Gaussian 16, Revision A.03,
 Gaussian 16:  ES64L-G16RevA.03 25-Dec-2016

 --------------------------------------------------------
 #p PBE1PBE/Def2SVP td=(nstates=5) density=(transition=1)
 --------------------------------------------------------

 --------------------------------
 TDDFT excited states in gaussian
 --------------------------------
 Symbolic Z-matrix:
 Charge =  0 Multiplicity = 1

                         Standard orientation:
 ---------------------------------------------------------------------
 Center     Atomic      Atomic             Coordinates (Angstroms)
 Number     Number       Type             X           Y           Z
 ---------------------------------------------------------------------
      1         12           0      -18.371543   -0.744947    0.162984
      2          6           0      -18.051288    2.588444   -0.829453
      3          6           0      -17.094549    0.245741    3.274615
      4          6           0      -18.090400   -3.949435    1.085586
      5          6           0      -18.595977   -1.645769   -3.150844
      6          7           0      -17.731016    1.258255    1.195615
      7          6           0      -17.661178    2.422059    0.496250
      8          6           0      -17.106012    3.585360    1.410214
      9          6           0      -16.561769    2.734337    2.665871
     10          6           0      -17.102562    1.324769    2.372820
     11          6           0      -14.996673    2.683934    2.552130
     12          6           0      -18.330840    4.481470    1.823529
     13          6           0      -18.068073    5.627492    2.838123
     14          1           0      -18.879842    6.034771    4.031650
     15          7           0      -17.883640   -1.662856    1.978144
     16          6           0      -17.413327   -1.112869    3.182307
     17          6           0      -17.203217   -2.167425    4.082690
     18          6           0      -17.660597   -3.360266    3.538835
     19          6           0      -17.910795   -3.022044    2.147440
     20          6           0      -16.746659   -1.884683    5.476463
     21          6           0      -17.730336   -4.801555    4.142994
     22          8           0      -18.174136   -5.785154    3.560317
     23          6           0      -17.441093   -5.078096    5.620899
     24          7           0      -18.231861   -2.512089   -0.914342
     25          6           0      -18.268671   -3.706923   -0.283266
     26          6           0      -18.526324   -4.897177   -1.227871
     27          6           0      -18.547873   -4.173381   -2.602797
     28          6           0      -18.578246   -2.699781   -2.238962
     29          6           0      -17.556007   -6.108366   -1.027558
     30          6           0      -19.656131   -4.590171   -3.608202
     31          6           0      -21.013028   -4.098294   -3.330222
     32          7           0      -18.432016    0.223112   -1.645381
     33          6           0      -18.524186   -0.239156   -2.870700
     34          6           0      -18.652410    0.839475   -3.855965
     35          6           0      -18.468378    1.992463   -3.027692
     36          6           0      -18.302478    1.576453   -1.721150
     37          6           0      -19.242911    0.803179   -5.187531
     38          6           0      -18.432265    3.443717   -3.074361
     39          8           0      -18.648573    4.209823   -3.985818
     40          6           0      -18.083674    3.853361   -1.638291
     41          6           0      -16.811837    4.706207   -1.583513
     42          8           0      -15.694645    4.264733   -1.657871
     43          8           0      -17.157951    6.034553   -1.514633
     44          6           0      -15.976764    6.925683   -1.449325
     45          1           0      -16.821392    0.585631    4.274917
     46          1           0      -18.218733   -4.992256    1.383962
     47          1           0      -18.811231   -2.180571   -4.077540
     48          1           0      -16.273908    4.118332    0.949460
     49          1           0      -16.857335    3.123327    3.641055
     50          1           0      -14.561995    1.739116    2.227401
     51          1           0      -14.524760    2.694122    3.534932
     52          1           0      -14.573882    3.462702    1.917736
     53          1           0      -19.103633    3.814153    2.204117
     54          1           0      -18.756696    4.878690    0.901740
     55          1           0      -17.890713    6.496878    2.204345
     56          1           0      -17.137860    5.280603    3.286393
     57          1           0      -16.533804   -0.839242    5.701328
     58          1           0      -15.950012   -2.590533    5.715431
     59          1           0      -17.612991   -2.144242    6.085524
     60          1           0      -16.399300   -4.922595    5.901445
     61          1           0      -17.800667   -6.041643    5.982342
     62          1           0      -18.071202   -4.391658    6.186777
     63          1           0      -19.521299   -5.148865   -0.861809
     64          1           0      -17.559924   -4.371119   -3.018686
     65          1           0      -17.215116   -6.168624    0.005480
     66          1           0      -16.682809   -5.977479   -1.667232
     67          1           0      -18.029283   -7.067779   -1.237479
     68          1           0      -19.622959   -5.675834   -3.522489
     69          1           0      -19.334639   -4.361478   -4.624478
     70          1           0      -21.118774   -3.086168   -3.720438
     71          1           0      -21.244919   -4.165357   -2.267466
     72          1           0      -21.770135   -4.663680   -3.874384
     73          1           0      -19.927998   -0.044577   -5.162542
     74          1           0      -18.619031    0.575327   -6.051943
     75          1           0      -19.731292    1.765905   -5.334585
     76          1           0      -18.928063    4.418339   -1.242066
     77          1           0      -16.209609    7.843283   -1.989270
     78          1           0      -15.098959    6.601389   -2.008647
     79          1           0      -15.757015    7.207814   -0.420171
     80         12           0       18.224103   -0.689638    0.070213
     81          6           0       16.179625    2.165879    0.291816
     82          6           0       20.972328    1.422415    0.347860
     83          6           0       20.110713   -3.368600   -0.469635
     84          6           0       15.379697   -2.568104   -1.057265
     85          7           0       18.535652    1.508838    0.266383
     86          6           0       17.519761    2.455118    0.461301
     87          6           0       18.118900    3.709807    1.069220
     88          6           0       19.650036    3.582464    0.828149
     89          6           0       19.730098    2.069943    0.461119
     90          6           0       20.276586    4.578875   -0.197198
     91          6           0       17.720738    3.967333    2.563857
     92          6           0       17.644105    5.506941    2.961929
     93          1           0       18.009762    6.540645    1.893398
     94          7           0       20.192263   -0.942545    0.083974
     95          6           0       21.161085    0.024469    0.289927
     96          6           0       22.465094   -0.569272    0.358915
     97          6           0       22.268722   -1.940957   -0.000955
     98          6           0       20.832081   -2.126150   -0.101833
     99          6           0       23.774194    0.244442    0.594133
    100          6           0       23.292722   -3.003950   -0.230778
    101          8           0       22.979819   -4.125963   -0.695703
    102          6           0       24.837724   -2.935938   -0.049448
    103          7           0       17.874191   -2.610199   -0.915191
    104          6           0       18.809183   -3.579028   -0.908600
    105          6           0       18.170404   -4.951356   -1.239269
    106          6           0       16.672335   -4.704272   -1.450226
    107          6           0       16.627611   -3.161170   -1.060436
    108          6           0       18.921558   -5.672048   -2.316920
    109          6           0       15.693032   -5.576799   -0.635979
    110          6           0       15.841257   -5.479097    0.902418
    111          7           0       16.167654   -0.325477   -0.387974
    112          6           0       15.169568   -1.197677   -0.661603
    113          6           0       13.916146   -0.459253   -0.515441
    114          6           0       14.208157    0.874506   -0.114486
    115          6           0       15.622921    0.933237   -0.094391
    116          6           0       12.514538   -1.053231   -0.627617
    117          6           0       13.653352    2.144483    0.230172
    118          8           0       12.511034    2.551246    0.425153
    119          6           0       14.987450    3.112883    0.462150
    120          6           0       14.870259    4.341907   -0.419557
    121          8           0       15.144755    4.348753   -1.603539
    122          8           0       14.515875    5.445557    0.322628
    123          6           0       13.984146    6.617764   -0.364938
    124          1           0       21.749161    2.156870    0.569645
    125          1           0       20.773336   -4.233438   -0.539449
    126          1           0       14.546335   -3.237648   -1.278804
    127          1           0       17.754292    4.581843    0.526537
    128          1           0       20.135098    3.728681    1.792828
    129          1           0       20.753948    3.907777   -0.910450
    130          1           0       21.081413    5.151480    0.265325
    131          1           0       19.632100    5.259484   -0.753484
    132          1           0       18.470684    3.573465    3.249121
    133          1           0       16.784674    3.448838    2.767324
    134          1           0       18.408567    5.683325    3.718783
    135          1           0       16.637536    5.693292    3.335561
    136          1           0       24.548621   -0.191123   -0.038432
    137          1           0       24.130488    0.177207    1.621507
    138          1           0       23.809323    1.321615    0.431838
    139          1           0       25.092391   -2.625959    0.964435
    140          1           0       25.317569   -2.298012   -0.791626
    141          1           0       25.322682   -3.907813    0.034064
    142          1           0       18.402592   -5.589819   -0.387854
    143          1           0       16.544992   -4.694530   -2.533293
    144          1           0       19.564781   -6.462021   -1.928776
    145          1           0       19.487962   -4.958377   -2.915435
    146          1           0       18.285121   -6.144619   -3.065897
    147          1           0       15.958213   -6.590638   -0.936522
    148          1           0       14.665099   -5.362675   -0.930063
    149          1           0       14.875122   -5.122732    1.259180
    150          1           0       16.638881   -4.761722    1.095672
    151          1           0       16.178936   -6.398557    1.380861
    152          1           0       11.844433   -0.696861    0.154210
    153          1           0       12.521825   -2.128700   -0.452713
    154          1           0       12.157684   -0.886279   -1.644296
    155          1           0       14.896866    3.445377    1.496556
    156          1           0       14.569728    6.732656   -1.277455
    157          1           0       14.062076    7.550724    0.193392
    158          1           0       12.923178    6.413017   -0.508423
 ---------------------------------------------------------------------

 SCF Done:  E(RPBE1PBE) =  -4067.39794012     A.U. after   16 cycles

 Excitation energies and oscillator strengths:

 Excited State   1:      Singlet-A      1.8055 eV  686.71 nm  f=0.0000  <S**2>=0.000
     312 -> 313        0.70710
 This state for optimization and/or second-order correction.
 Total Energy, E(TD-HF/TD-DFT) =  -4067.33158968
 Copying the excited state density for this state as the 1-particle RhoCI density.

 Excited State   2:      Singlet-A      1.8182 eV  681.90 nm  f=0.3864  <S**2>=0.000
     309 -> 315       -0.16262
     311 -> 313        0.69668
     311 <- 313       -0.11885

 Excited State   3:      Singlet-A      1.8847 eV  657.86 nm  f=0.3781  <S**2>=0.000
     310 -> 316       -0.17976
     312 -> 314        0.69127
     312 <- 314       -0.10354

 Excited State   4:      Singlet-A      2.1092 eV  587.82 nm  f=0.0000  <S**2>=0.000
     311 -> 314        0.70711

 Excited State   5:      Singlet-A      2.1901 eV  566.10 nm  f=0.1388  <S**2>=0.000
     309 -> 313        0.66496
     311 -> 315        0.22022

 The electronic state is 1-A.
 Alpha  occ. eigenvalues --  -46.92323 -46.92098 -19.26427 -19.24919 -19.20604
 Alpha  occ. eigenvalues --  -19.19683 -19.19499 -19.19456 -19.19087 -19.18523
 Alpha  occ. eigenvalues --  -14.41926 -14.41536 -14.41078 -14.40722 -14.39882
 Alpha  occ. eigenvalues --  -14.39134 -14.38815 -14.38751 -10.36773 -10.36108
 Alpha  occ. eigenvalues --  -10.33178 -10.32809 -10.32549 -10.31679 -10.29090
 Alpha  occ. eigenvalues --  -10.29029 -10.28654 -10.28631 -10.28619 -10.28536
 Alpha  occ. eigenvalues --  -10.28467 -10.28385 -10.28218 -10.28202 -10.28010
 Alpha  occ. eigenvalues --  -10.27811 -10.27786 -10.27728 -10.27472 -10.27122
 Alpha  occ. eigenvalues --  -10.26976 -10.26924 -10.26807 -10.26424 -10.26390
 Alpha  occ. eigenvalues --  -10.26173 -10.25931 -10.25912 -10.25896 -10.25878
 Alpha  occ. eigenvalues --  -10.25707 -10.25593 -10.25573 -10.25562 -10.25455
 Alpha  occ. eigenvalues --  -10.25367 -10.25339 -10.25332 -10.25235 -10.25126
 Alpha  occ. eigenvalues --  -10.25101 -10.25062 -10.24960 -10.24943 -10.24688
 Alpha  occ. eigenvalues --  -10.24638 -10.24533 -10.24409 -10.24404 -10.24249
 Alpha  occ. eigenvalues --  -10.23856 -10.23827 -10.23824 -10.23678 -10.23509
 Alpha  occ. eigenvalues --  -10.23502 -10.23474 -10.23251 -10.23154 -10.23147
 Alpha  occ. eigenvalues --  -10.23071 -10.23055 -10.22858 -10.22565 -10.22381
 Alpha  occ. eigenvalues --  -10.22127  -3.14471  -3.14238  -1.87281  -1.87065
 Alpha  occ. eigenvalues --   -1.86845  -1.86708  -1.86627  -1.86448  -1.11570
 Alpha  occ. eigenvalues --   -1.10209  -1.05088  -1.04987  -1.04274  -1.03582
 Alpha  occ. eigenvalues --   -1.03036  -1.02272  -0.99750  -0.98885  -0.98328
 Alpha  occ. eigenvalues --   -0.98063  -0.97957  -0.97884  -0.96994  -0.96878
 Alpha  occ. eigenvalues --   -0.88229  -0.86588  -0.83713  -0.83520  -0.82786
 Alpha  occ. eigenvalues --   -0.82772  -0.82413  -0.82408  -0.81722  -0.81703
 Alpha  occ. eigenvalues --   -0.81525  -0.80997  -0.80609  -0.79730  -0.78279
 Alpha  occ. eigenvalues --   -0.78060  -0.77970  -0.77666  -0.76652  -0.76453
 Alpha  occ. eigenvalues --   -0.75694  -0.75338  -0.75136  -0.74972  -0.74669
 Alpha  occ. eigenvalues --   -0.74127  -0.72862  -0.72714  -0.71902  -0.71284
 Alpha  occ. eigenvalues --   -0.71058  -0.70920  -0.70435  -0.70150  -0.69339
 Alpha  occ. eigenvalues --   -0.69146  -0.67033  -0.66964  -0.66181  -0.65503
 Alpha  occ. eigenvalues --   -0.64368  -0.64252  -0.63597  -0.63540  -0.62845
 Alpha  occ. eigenvalues --   -0.62767  -0.61912  -0.61331  -0.59817  -0.59760
 Alpha  occ. eigenvalues --   -0.59299  -0.59188  -0.58930  -0.58748  -0.58615
 Alpha  occ. eigenvalues --   -0.58568  -0.57079  -0.56239  -0.55405  -0.54515
 Alpha  occ. eigenvalues --   -0.54063  -0.54015  -0.53896  -0.53377  -0.53025
 Alpha  occ. eigenvalues --   -0.52868  -0.52747  -0.52034  -0.51912  -0.51458
 Alpha  occ. eigenvalues --   -0.51038  -0.50488  -0.50289  -0.50166  -0.50109
 Alpha  occ. eigenvalues --   -0.49764  -0.49367  -0.49328  -0.49189  -0.48528
 Alpha  occ. eigenvalues --   -0.48487  -0.48012  -0.47786  -0.47702  -0.47549
 Alpha  occ. eigenvalues --   -0.47309  -0.47276  -0.47151  -0.46807  -0.46712
 Alpha  occ. eigenvalues --   -0.46701  -0.46505  -0.45911  -0.45688  -0.45651
 Alpha  occ. eigenvalues --   -0.45588  -0.45348  -0.45328  -0.44697  -0.44511
 Alpha  occ. eigenvalues --   -0.44466  -0.44147  -0.44143  -0.44024  -0.43870
 Alpha  occ. eigenvalues --   -0.43846  -0.43792  -0.43712  -0.43508  -0.43436
 Alpha  occ. eigenvalues --   -0.43420  -0.43207  -0.42927  -0.42830  -0.42517
 Alpha  occ. eigenvalues --   -0.42474  -0.42335  -0.42140  -0.42087  -0.41757
 Alpha  occ. eigenvalues --   -0.41411  -0.41311  -0.41073  -0.40962  -0.40812
 Alpha  occ. eigenvalues --   -0.40707  -0.40587  -0.40541  -0.40177  -0.40086
 Alpha  occ. eigenvalues --   -0.39964  -0.39819  -0.39715  -0.39435  -0.39432
 Alpha  occ. eigenvalues --   -0.39278  -0.39168  -0.39031  -0.38991  -0.38862
 Alpha  occ. eigenvalues --   -0.38822  -0.38803  -0.38623  -0.38417  -0.38210
 Alpha  occ. eigenvalues --   -0.38153  -0.37988  -0.37950  -0.37701  -0.37672
 Alpha  occ. eigenvalues --   -0.37461  -0.37359  -0.37284  -0.37233  -0.37135
 Alpha  occ. eigenvalues --   -0.36799  -0.36762  -0.36748  -0.36616  -0.36500
 Alpha  occ. eigenvalues --   -0.36295  -0.35572  -0.35572  -0.35430  -0.35113
 Alpha  occ. eigenvalues --   -0.35010  -0.34596  -0.34534  -0.34128  -0.33832
 Alpha  occ. eigenvalues --   -0.33657  -0.33376  -0.32811  -0.32792  -0.32664
 Alpha  occ. eigenvalues --   -0.32634  -0.32230  -0.31914  -0.31781  -0.31387
 Alpha  occ. eigenvalues --   -0.31368  -0.30874  -0.29781  -0.29477  -0.29205
 Alpha  occ. eigenvalues --   -0.28910  -0.28705  -0.28424  -0.27072  -0.26921
 Alpha  occ. eigenvalues --   -0.26291  -0.25864  -0.25815  -0.25721  -0.25511
 Alpha  occ. eigenvalues --   -0.25264  -0.24961  -0.24960  -0.21063  -0.20695
 Alpha  occ. eigenvalues --   -0.18990  -0.18633
 Alpha virt. eigenvalues --   -0.11633  -0.10870  -0.05025  -0.04823  -0.04278
 Alpha virt. eigenvalues --   -0.03759  -0.02319  -0.02083  -0.01274  -0.00548
 Alpha virt. eigenvalues --    0.00578   0.00594   0.01067   0.01366   0.01829

 Mulliken charges:
               1
     1  Mg  12.000000
     2  C    6.000000
     3  C    6.000000
     4  C    6.000000
     5  C    6.000000
     6  N    7.000000
     7  C    6.000000
     8  C    6.000000
     9  C    6.000000
    10  C    6.000000
    11  C    6.000000
    12  C    6.000000
    13  C    6.000000
    14  H    1.000000
    15  N    7.000000
    16  C    6.000000
    17  C    6.000000
    18  C    6.000000
    19  C    6.000000
    20  C    6.000000
    21  C    6.000000
    22  O    8.000000
    23  C    6.000000
    24  N    7.000000
    25  C    6.000000
    26  C    6.000000
    27  C    6.000000
    28  C    6.000000
    29  C    6.000000
    30  C    6.000000
    31  C    6.000000
    32  N    7.000000
    33  C    6.000000
    34  C    6.000000
    35  C    6.000000
    36  C    6.000000
    37  C    6.000000
    38  C    6.000000
    39  O    8.000000
    40  C    6.000000
    41  C    6.000000
    42  O    8.000000
    43  O    8.000000
    44  C    6.000000
    45  H    1.000000
    46  H    1.000000
    47  H    1.000000
    48  H    1.000000
    49  H    1.000000
    50  H    1.000000
    51  H    1.000000
    52  H    1.000000
    53  H    1.000000
    54  H    1.000000
    55  H    1.000000
    56  H    1.000000
    57  H    1.000000
    58  H    1.000000
    59  H    1.000000
    60  H    1.000000
    61  H    1.000000
    62  H    1.000000
    63  H    1.000000
    64  H    1.000000
    65  H    1.000000
    66  H    1.000000
    67  H    1.000000
    68  H    1.000000
    69  H    1.000000
    70  H    1.000000
    71  H    1.000000
    72  H    1.000000
    73  H    1.000000
    74  H    1.000000
    75  H    1.000000
    76  H    1.000000
    77  H    1.000000
    78  H    1.000000
    79  H    1.000000
    80  Mg  12.000000
    81  C    6.000000
    82  C    6.000000
    83  C    6.000000
    84  C    6.000000
    85  N    7.000000
    86  C    6.000000
    87  C    6.000000
    88  C    6.000000
    89  C    6.000000
    90  C    6.000000
    91  C    6.000000
    92  C    6.000000
    93  H    1.000000
    94  N    7.000000
    95  C    6.000000
    96  C    6.000000
    97  C    6.000000
    98  C    6.000000
    99  C    6.000000
   100  C    6.000000
   101  O    8.000000
   102  C    6.000000
   103  N    7.000000
   104  C    6.000000
   105  C    6.000000
   106  C    6.000000
   107  C    6.000000
   108  C    6.000000
   109  C    6.000000
   110  C    6.000000
   111  N    7.000000
   112  C    6.000000
   113  C    6.000000
   114  C    6.000000
   115  C    6.000000
   116  C    6.000000
   117  C    6.000000
   118  O    8.000000
   119  C    6.000000
   120  C    6.000000
   121  O    8.000000
   122  O    8.000000
   123  C    6.000000
   124  H    1.000000
   125  H    1.000000
   126  H    1.000000
   127  H    1.000000
   128  H    1.000000
   129  H    1.000000
   130  H    1.000000
   131  H    1.000000
   132  H    1.000000
   133  H    1.000000
   134  H    1.000000
   135  H    1.000000
   136  H    1.000000
   137  H    1.000000
   138  H    1.000000
   139  H    1.000000
   140  H    1.000000
   141  H    1.000000
   142  H    1.000000
   143  H    1.000000
   144  H    1.000000
   145  H    1.000000
   146  H    1.000000
   147  H    1.000000
   148  H    1.000000
   149  H    1.000000
   150  H    1.000000
   151  H    1.000000
   152  H    1.000000
   153  H    1.000000
   154  H    1.000000
   155  H    1.000000
   156  H    1.000000
   157  H    1.000000
   158  H    1.000000
 Sum of Mulliken charges = 624.00000

 Dipole moment (field-independent basis, Debye):
    X=              0.0000    Y=             -0.0000    Z=              0.0000  Tot=              0.0000
 Quadrupole moment (field-independent basis, Debye-Ang):
   XX=              0.0000   YY=              0.0000   ZZ=             -0.0000
   XY=             -0.0000   XZ=             -0.0000   YZ=             -0.0000

 Normal termination of Gaussian 16 at Thu Oct 14 01:23:34 2021.
