 Gaussian 16, Revision A.03,
 Gaussian 16:  ES64L-G16RevA.03 25-Dec-2016

 --------------------------------------------------------
 #p PBE1PBE/Def2SVP td=(nstates=5) density=(transition=1)
 --------------------------------------------------------

 --------------------------------
 TDDFT excited states in gaussian
 --------------------------------
 Symbolic Z-matrix:
 Charge =  0 Multiplicity = 1

                         Standard orientation:
 ---------------------------------------------------------------------
 Center     Atomic      Atomic             Coordinates (Angstroms)
 Number     Number       Type             X           Y           Z
 ---------------------------------------------------------------------
      1         12           0      -31.393893   -0.003011    0.108612
      2          6           0      -28.147254   -0.955705   -0.828401
      3          6           0      -31.258007   -2.316755    2.592652
      4          6           0      -34.220642    1.285759    1.130841
      5          6           0      -30.858872    2.853314   -2.017786
      6          7           0      -29.907578   -1.480488    0.725302
      7          6           0      -28.652660   -1.687327    0.226070
      8          6           0      -27.888210   -2.588147    1.207643
      9          6           0      -29.022253   -3.365538    1.866658
     10          6           0      -30.103461   -2.269859    1.800215
     11          6           0      -29.432575   -4.624416    1.068223
     12          6           0      -27.062955   -1.738764    2.243682
     13          6           0      -25.458400   -1.810513    2.184958
     14          1           0      -24.662663   -0.524424    1.904161
     15          7           0      -32.550989   -0.411770    1.681138
     16          6           0      -32.343160   -1.424087    2.589617
     17          6           0      -33.492563   -1.505998    3.435548
     18          6           0      -34.470911   -0.554759    2.994230
     19          6           0      -33.783145    0.178109    1.891978
     20          6           0      -33.621030   -2.528493    4.616186
     21          6           0      -35.919856   -0.414086    3.586985
     22          8           0      -36.309282   -1.190566    4.404007
     23          6           0      -36.852263    0.489325    2.923830
     24          7           0      -32.253495    1.982267   -0.146054
     25          6           0      -33.582422    2.018270    0.112099
     26          6           0      -34.338040    2.996532   -0.771628
     27          6           0      -33.225673    3.743537   -1.491519
     28          6           0      -32.002171    2.805485   -1.204215
     29          6           0      -35.321687    2.285582   -1.773054
     30          6           0      -32.925168    5.269856   -1.113100
     31          6           0      -33.278023    6.404808   -2.036653
     32          7           0      -29.965550    0.705853   -1.303216
     33          6           0      -29.875854    1.864971   -2.084664
     34          6           0      -28.626434    1.923251   -2.812107
     35          6           0      -27.940112    0.821119   -2.364843
     36          6           0      -28.749744    0.098037   -1.428120
     37          6           0      -28.221163    2.998666   -3.731971
     38          6           0      -26.684437    0.096810   -2.488755
     39          8           0      -25.728575    0.300302   -3.247475
     40          6           0      -26.808329   -1.121557   -1.598223
     41          6           0      -26.710419   -2.349945   -2.496288
     42          8           0      -27.503279   -2.520876   -3.419509
     43          8           0      -25.571029   -3.115314   -2.203117
     44          6           0      -25.397614   -4.274106   -3.037648
     45          1           0      -31.243896   -3.169410    3.274272
     46          1           0      -35.284615    1.471709    1.285318
     47          1           0      -30.753042    3.663278   -2.742785
     48          1           0      -27.142917   -3.126752    0.621834
     49          1           0      -28.707525   -3.630610    2.875236
     50          1           0      -29.409491   -5.346967    1.883250
     51          1           0      -28.635575   -4.757764    0.336172
     52          1           0      -30.398943   -4.595368    0.564702
     53          1           0      -27.325282   -2.100737    3.237719
     54          1           0      -27.427332   -0.713009    2.193408
     55          1           0      -25.232735   -2.455612    1.335490
     56          1           0      -24.992640   -2.284369    3.048211
     57          1           0      -33.925872   -2.148830    5.590903
     58          1           0      -32.633360   -2.978743    4.720807
     59          1           0      -34.313585   -3.340905    4.395334
     60          1           0      -36.517755    1.525847    2.875866
     61          1           0      -37.803537    0.450055    3.454457
     62          1           0      -37.161380    0.072313    1.966350
     63          1           0      -34.991231    3.658015   -0.201542
     64          1           0      -33.377306    3.698658   -2.570000
     65          1           0      -36.355967    2.277867   -1.429521
     66          1           0      -34.922714    1.307749   -2.042761
     67          1           0      -35.313042    2.869154   -2.694755
     68          1           0      -31.956990    5.507918   -0.673897
     69          1           0      -33.626760    5.305265   -0.279238
     70          1           0      -34.061970    7.053980   -1.647930
     71          1           0      -33.634499    6.004757   -2.986163
     72          1           0      -32.341185    6.945979   -2.167195
     73          1           0      -28.758944    3.902039   -3.442925
     74          1           0      -28.585077    2.693734   -4.713546
     75          1           0      -27.137915    3.104450   -3.769279
     76          1           0      -25.918492   -1.046488   -0.974667
     77          1           0      -26.046541   -5.114187   -2.788708
     78          1           0      -24.375016   -4.648112   -2.996137
     79          1           0      -25.555136   -4.090540   -4.100125
     80         12           0       30.568341    0.844360    0.243217
     81          6           0       30.925600   -2.463883   -0.871664
     82          6           0       29.469207    1.809587   -2.753740
     83          6           0       30.383461    3.849830    1.429214
     84          6           0       32.690244   -0.130180    3.006634
     85          7           0       30.352236   -0.235583   -1.608622
     86          6           0       30.375007   -1.556196   -1.828339
     87          6           0       30.086636   -1.893279   -3.268496
     88          6           0       30.027843   -0.465437   -3.945675
     89          6           0       29.927094    0.425525   -2.722715
     90          6           0       31.187664   -0.048478   -4.907191
     91          6           0       28.653432   -2.622201   -3.402767
     92          6           0       28.691777   -3.911980   -4.286368
     93          1           0       27.324253   -4.775373   -4.142085
     94          7           0       29.791381    2.485454   -0.451284
     95          6           0       29.327213    2.717090   -1.734893
     96          6           0       28.634389    3.976010   -1.748193
     97          6           0       28.835821    4.660941   -0.480550
     98          6           0       29.611239    3.628194    0.307808
     99          6           0       27.981962    4.460836   -3.074700
    100          6           0       28.430756    6.005934    0.111760
    101          8           0       28.627558    6.387929    1.279498
    102          6           0       27.636539    6.831525   -0.837417
    103          7           0       31.570944    1.689427    1.890283
    104          6           0       31.272885    3.010625    2.115758
    105          6           0       32.084469    3.562063    3.288541
    106          6           0       32.558754    2.253010    3.972525
    107          6           0       32.327758    1.199211    2.887696
    108          6           0       33.172044    4.580351    2.761837
    109          6           0       31.837956    1.877442    5.336332
    110          6           0       32.615577    0.970032    6.303035
    111          7           0       31.587606   -0.926819    0.987710
    112          6           0       32.369797   -1.126564    2.084651
    113          6           0       32.714091   -2.522775    2.234171
    114          6           0       32.086249   -3.079443    1.104853
    115          6           0       31.471547   -2.073838    0.345176
    116          6           0       33.535012   -3.279797    3.303374
    117          6           0       31.844291   -4.330204    0.441511
    118          8           0       32.013081   -5.479360    0.755422
    119          6           0       31.204641   -3.928275   -0.987108
    120          6           0       30.130550   -4.919361   -1.092720
    121          8           0       28.976344   -4.892026   -0.595620
    122          8           0       30.645678   -5.909748   -1.841472
    123          6           0       29.815251   -7.086947   -2.099635
    124          1           0       29.023194    2.115065   -3.702689
    125          1           0       30.260006    4.841874    1.869053
    126          1           0       33.247797   -0.386929    3.909777
    127          1           0       30.806593   -2.561188   -3.742238
    128          1           0       29.122324   -0.239607   -4.509142
    129          1           0       31.761518    0.735221   -4.412642
    130          1           0       30.690849    0.353032   -5.790231
    131          1           0       31.915691   -0.801949   -5.205742
    132          1           0       27.829673   -1.993736   -3.743279
    133          1           0       28.318276   -2.817743   -2.384112
    134          1           0       29.528054   -4.548442   -3.997869
    135          1           0       28.746531   -3.737268   -5.360612
    136          1           0       26.956053    4.095744   -3.095293
    137          1           0       28.349423    3.939694   -3.959570
    138          1           0       28.155860    5.497158   -3.363408
    139          1           0       26.695211    6.382590   -1.152393
    140          1           0       28.347313    6.985398   -1.650259
    141          1           0       27.405647    7.829324   -0.463270
    142          1           0       31.367038    4.111668    3.898051
    143          1           0       33.613004    2.346856    4.232844
    144          1           0       34.165165    4.135312    2.821768
    145          1           0       33.280314    5.538986    3.268520
    146          1           0       33.130921    4.837601    1.703221
    147          1           0       31.008012    1.254371    5.001953
    148          1           0       31.455668    2.695275    5.947537
    149          1           0       32.141071   -0.004779    6.422925
    150          1           0       32.803062    1.313873    7.320455
    151          1           0       33.549196    0.740862    5.791205
    152          1           0       34.208891   -2.539821    3.735144
    153          1           0       34.093318   -4.104677    2.858717
    154          1           0       32.820850   -3.613172    4.056252
    155          1           0       31.927027   -4.125992   -1.779244
    156          1           0       29.538585   -7.089092   -3.153792
    157          1           0       28.987717   -7.170734   -1.395977
    158          1           0       30.440111   -7.973142   -1.989386
 ---------------------------------------------------------------------

 SCF Done:  E(RPBE1PBE) =  -4067.37444583     A.U. after   16 cycles

 Excitation energies and oscillator strengths:

 Excited State   1:      Singlet-A      1.8754 eV  661.09 nm  f=0.3639  <S**2>=0.000
     310 -> 315        0.18945
     311 -> 313        0.68739
 This state for optimization and/or second-order correction.
 Total Energy, E(TD-HF/TD-DFT) =  -4067.30552478
 Copying the excited state density for this state as the 1-particle RhoCI density.

 Excited State   2:      Singlet-A      1.8785 eV  660.01 nm  f=0.3611  <S**2>=0.000
     309 -> 316        0.18338
     312 -> 314        0.68939
     312 <- 314       -0.10085

 Excited State   3:      Singlet-A      2.0277 eV  611.44 nm  f=0.0000  <S**2>=0.000
     312 -> 313        0.70711

 Excited State   4:      Singlet-A      2.0936 eV  592.20 nm  f=0.0000  <S**2>=0.000
     311 -> 314        0.70711

 Excited State   5:      Singlet-A      2.2462 eV  551.98 nm  f=0.0678  <S**2>=0.000
     310 -> 313        0.63551
     311 -> 315       -0.29933

 The electronic state is 1-A.
 Alpha  occ. eigenvalues --  -46.92074 -46.90983 -19.26659 -19.25510 -19.20769
 Alpha  occ. eigenvalues --  -19.19809 -19.19308 -19.19287 -19.18918 -19.18678
 Alpha  occ. eigenvalues --  -14.42060 -14.41637 -14.41589 -14.41280 -14.39114
 Alpha  occ. eigenvalues --  -14.39073 -14.38993 -14.38088 -10.37256 -10.35551
 Alpha  occ. eigenvalues --  -10.33024 -10.32213 -10.31836 -10.31643 -10.29438
 Alpha  occ. eigenvalues --  -10.28980 -10.28875 -10.28863 -10.28708 -10.28527
 Alpha  occ. eigenvalues --  -10.28483 -10.28395 -10.28333 -10.28221 -10.28216
 Alpha  occ. eigenvalues --  -10.28066 -10.27717 -10.27600 -10.27434 -10.27284
 Alpha  occ. eigenvalues --  -10.27020 -10.26955 -10.26807 -10.26566 -10.26225
 Alpha  occ. eigenvalues --  -10.26213 -10.26174 -10.25986 -10.25977 -10.25935
 Alpha  occ. eigenvalues --  -10.25710 -10.25683 -10.25662 -10.25600 -10.25593
 Alpha  occ. eigenvalues --  -10.25573 -10.25540 -10.25502 -10.25376 -10.25281
 Alpha  occ. eigenvalues --  -10.25193 -10.25047 -10.24926 -10.24879 -10.24744
 Alpha  occ. eigenvalues --  -10.24548 -10.24516 -10.24504 -10.24442 -10.24375
 Alpha  occ. eigenvalues --  -10.24127 -10.24100 -10.24078 -10.23973 -10.23935
 Alpha  occ. eigenvalues --  -10.23733 -10.23608 -10.23491 -10.23371 -10.23347
 Alpha  occ. eigenvalues --  -10.23253 -10.23117 -10.22999 -10.22832 -10.22771
 Alpha  occ. eigenvalues --  -10.22228  -3.14263  -3.13396  -1.87077  -1.86652
 Alpha  occ. eigenvalues --   -1.86486  -1.86224  -1.85783  -1.85636  -1.10702
 Alpha  occ. eigenvalues --   -1.10700  -1.06701  -1.05559  -1.04021  -1.03777
 Alpha  occ. eigenvalues --   -1.02991  -1.00309  -0.99844  -0.99373  -0.98983
 Alpha  occ. eigenvalues --   -0.98886  -0.98268  -0.97486  -0.97032  -0.96777
 Alpha  occ. eigenvalues --   -0.87370  -0.87098  -0.83445  -0.83421  -0.83261
 Alpha  occ. eigenvalues --   -0.82857  -0.82526  -0.82350  -0.81914  -0.81789
 Alpha  occ. eigenvalues --   -0.81447  -0.81166  -0.80616  -0.79322  -0.78848
 Alpha  occ. eigenvalues --   -0.78810  -0.78513  -0.78114  -0.76812  -0.76754
 Alpha  occ. eigenvalues --   -0.76687  -0.76455  -0.75625  -0.75373  -0.75178
 Alpha  occ. eigenvalues --   -0.74621  -0.72456  -0.72339  -0.71631  -0.71524
 Alpha  occ. eigenvalues --   -0.71204  -0.70703  -0.70580  -0.70232  -0.69732
 Alpha  occ. eigenvalues --   -0.69447  -0.67307  -0.67243  -0.66593  -0.66592
 Alpha  occ. eigenvalues --   -0.63590  -0.63404  -0.63201  -0.63023  -0.62489
 Alpha  occ. eigenvalues --   -0.62300  -0.61616  -0.61225  -0.60475  -0.60257
 Alpha  occ. eigenvalues --   -0.60079  -0.60001  -0.59428  -0.59402  -0.59023
 Alpha  occ. eigenvalues --   -0.59008  -0.57270  -0.56349  -0.54773  -0.54751
 Alpha  occ. eigenvalues --   -0.54608  -0.54371  -0.53756  -0.53732  -0.53477
 Alpha  occ. eigenvalues --   -0.53260  -0.52954  -0.52623  -0.52281  -0.51556
 Alpha  occ. eigenvalues --   -0.50903  -0.50843  -0.50670  -0.50389  -0.50040
 Alpha  occ. eigenvalues --   -0.49795  -0.49387  -0.48875  -0.48573  -0.48487
 Alpha  occ. eigenvalues --   -0.48134  -0.47930  -0.47686  -0.47661  -0.47605
 Alpha  occ. eigenvalues --   -0.47452  -0.47436  -0.47164  -0.47090  -0.46763
 Alpha  occ. eigenvalues --   -0.46742  -0.46311  -0.46222  -0.45948  -0.45605
 Alpha  occ. eigenvalues --   -0.45586  -0.45488  -0.45218  -0.45119  -0.45033
 Alpha  occ. eigenvalues --   -0.44758  -0.44743  -0.44567  -0.44455  -0.44148
 Alpha  occ. eigenvalues --   -0.44022  -0.43895  -0.43715  -0.43666  -0.43512
 Alpha  occ. eigenvalues --   -0.43296  -0.43073  -0.43000  -0.42738  -0.42703
 Alpha  occ. eigenvalues --   -0.42633  -0.42235  -0.42116  -0.41961  -0.41838
 Alpha  occ. eigenvalues --   -0.41589  -0.41297  -0.41196  -0.41096  -0.41023
 Alpha  occ. eigenvalues --   -0.40997  -0.40851  -0.40706  -0.40596  -0.40473
 Alpha  occ. eigenvalues --   -0.40266  -0.40124  -0.40002  -0.39939  -0.39644
 Alpha  occ. eigenvalues --   -0.39212  -0.39067  -0.38994  -0.38909  -0.38637
 Alpha  occ. eigenvalues --   -0.38575  -0.38387  -0.38376  -0.38276  -0.38132
 Alpha  occ. eigenvalues --   -0.37928  -0.37894  -0.37701  -0.37650  -0.37420
 Alpha  occ. eigenvalues --   -0.37388  -0.37232  -0.37036  -0.37023  -0.36858
 Alpha  occ. eigenvalues --   -0.36827  -0.36679  -0.36549  -0.36444  -0.36225
 Alpha  occ. eigenvalues --   -0.36009  -0.36006  -0.35800  -0.35687  -0.35588
 Alpha  occ. eigenvalues --   -0.35514  -0.35275  -0.35194  -0.34930  -0.34510
 Alpha  occ. eigenvalues --   -0.33890  -0.33673  -0.32977  -0.32824  -0.32465
 Alpha  occ. eigenvalues --   -0.32433  -0.32060  -0.32011  -0.31710  -0.31592
 Alpha  occ. eigenvalues --   -0.30468  -0.30350  -0.29907  -0.29699  -0.29450
 Alpha  occ. eigenvalues --   -0.29175  -0.29006  -0.27863  -0.26975  -0.26953
 Alpha  occ. eigenvalues --   -0.26399  -0.26112  -0.25964  -0.25847  -0.25575
 Alpha  occ. eigenvalues --   -0.25565  -0.25259  -0.25204  -0.21281  -0.21103
 Alpha  occ. eigenvalues --   -0.18784  -0.18666
 Alpha virt. eigenvalues --   -0.11000  -0.10875  -0.05737  -0.05639  -0.04461
 Alpha virt. eigenvalues --   -0.03700  -0.01943  -0.01874  -0.00869  -0.00347
 Alpha virt. eigenvalues --    0.00179   0.00759   0.00850   0.00963   0.01498

 Mulliken charges:
               1
     1  Mg  11.999986
     2  C    5.998996
     3  C    6.000657
     4  C    6.000795
     5  C    5.999502
     6  N    6.999821
     7  C    6.001325
     8  C    5.999994
     9  C    6.000303
    10  C    5.998660
    11  C    6.000079
    12  C    5.999957
    13  C    6.000013
    14  H    0.999795
    15  N    7.000230
    16  C    5.998351
    17  C    5.999191
    18  C    5.999554
    19  C    5.998401
    20  C    6.000153
    21  C    5.999379
    22  O    7.999259
    23  C    6.000322
    24  N    6.999948
    25  C    5.998630
    26  C    6.000374
    27  C    5.999773
    28  C    6.001392
    29  C    6.000176
    30  C    5.999607
    31  C    6.000026
    32  N    6.999971
    33  C    6.001462
    34  C    6.001241
    35  C    5.999988
    36  C    6.001421
    37  C    5.999854
    38  C    6.000881
    39  O    8.001307
    40  C    5.999865
    41  C    6.000301
    42  O    8.000084
    43  O    8.000103
    44  C    5.999878
    45  H    0.999523
    46  H    0.999636
    47  H    1.000407
    48  H    0.999803
    49  H    0.999895
    50  H    0.999942
    51  H    0.999338
    52  H    1.000037
    53  H    1.000520
    54  H    0.999986
    55  H    0.999903
    56  H    1.000167
    57  H    0.999276
    58  H    0.999343
    59  H    0.999224
    60  H    0.999586
    61  H    0.999459
    62  H    0.999593
    63  H    1.000013
    64  H    0.999975
    65  H    1.000088
    66  H    0.999868
    67  H    0.999516
    68  H    0.999992
    69  H    1.000566
    70  H    1.000234
    71  H    1.000067
    72  H    0.999943
    73  H    1.000721
    74  H    1.000806
    75  H    1.000613
    76  H    1.000428
    77  H    1.000284
    78  H    1.000193
    79  H    1.000052
    80  Mg  12.002271
    81  C    5.984564
    82  C    6.013026
    83  C    6.009187
    84  C    5.983974
    85  N    6.995592
    86  C    6.034291
    87  C    5.987539
    88  C    6.007637
    89  C    5.964561
    90  C    6.001675
    91  C    5.997838
    92  C    5.998683
    93  H    1.003116
    94  N    7.004844
    95  C    5.967815
    96  C    5.978425
    97  C    5.979897
    98  C    5.980042
    99  C    6.002916
   100  C    5.985934
   101  O    7.968451
   102  C    6.005521
   103  N    6.994725
   104  C    5.976041
   105  C    6.005483
   106  C    5.992430
   107  C    6.033230
   108  C    6.004662
   109  C    5.997671
   110  C    5.999223
   111  N    6.998653
   112  C    6.035061
   113  C    6.030327
   114  C    6.000613
   115  C    6.028776
   116  C    6.001748
   117  C    6.015853
   118  O    8.027974
   119  C    6.002131
   120  C    6.002748
   121  O    8.007735
   122  O    8.000403
   123  C    5.997577
   124  H    0.992075
   125  H    0.994495
   126  H    1.008179
   127  H    1.001453
   128  H    1.002190
   129  H    1.000528
   130  H    0.998809
   131  H    0.987295
   132  H    1.012089
   133  H    0.997086
   134  H    0.995499
   135  H    1.005358
   136  H    0.981934
   137  H    0.982804
   138  H    0.984961
   139  H    0.991442
   140  H    0.994055
   141  H    0.985253
   142  H    1.002366
   143  H    1.003629
   144  H    0.988347
   145  H    0.998077
   146  H    1.005255
   147  H    1.001235
   148  H    1.011213
   149  H    0.996943
   150  H    1.005151
   151  H    0.997401
   152  H    1.014924
   153  H    1.013056
   154  H    1.016759
   155  H    1.007530
   156  H    1.006322
   157  H    1.002662
   158  H    1.002761
 Sum of Mulliken charges = 624.00000

 Dipole moment (field-independent basis, Debye):
    X=              4.1998    Y=             -8.6668    Z=              3.0963  Tot=             10.1163
 Quadrupole moment (field-independent basis, Debye-Ang):
   XX=            221.0334   YY=            -12.1341   ZZ=              2.1640
   XY=           -267.0940   XZ=            115.4574   YZ=              1.8738

 Normal termination of Gaussian 16 at Fri Oct 15 16:19:28 2021.
