 Gaussian 16, Revision A.03,
 Gaussian 16:  ES64L-G16RevA.03 25-Dec-2016

 --------------------------------------------------------
 #p PBE1PBE/Def2SVP td=(nstates=5) density=(transition=1)
 --------------------------------------------------------

 --------------------------------
 TDDFT excited states in gaussian
 --------------------------------
 Symbolic Z-matrix:
 Charge =  0 Multiplicity = 1

                         Standard orientation:
 ---------------------------------------------------------------------
 Center     Atomic      Atomic             Coordinates (Angstroms)
 Number     Number       Type             X           Y           Z
 ---------------------------------------------------------------------
      1         12           0       -0.781863    0.070045    0.075375
      2          6           0        2.635631    0.031111    0.109302
      3          6           0       -0.897352   -3.253391   -0.133779
      4          6           0       -4.020842    0.335246   -0.172062
      5          6           0       -0.517543    3.603664   -0.307020
      6          7           0        0.728035   -1.468016   -0.178889
      7          6           0        2.029740   -1.251742    0.135447
      8          6           0        2.747345   -2.531860    0.465621
      9          6           0        1.639511   -3.597351    0.093837
     10          6           0        0.420809   -2.741196   -0.174378
     11          6           0        2.026008   -4.556428   -1.057577
     12          6           0        3.360202   -2.592843    1.994698
     13          6           0        4.806427   -3.074064    2.187323
     14          1           0        5.399131   -3.994048    1.074116
     15          7           0       -2.203847   -1.221705    0.053367
     16          6           0       -2.119352   -2.574560   -0.037962
     17          6           0       -3.402570   -3.216210   -0.189182
     18          6           0       -4.312672   -2.221016    0.002772
     19          6           0       -3.518372   -0.963144   -0.154338
     20          6           0       -3.402533   -4.697045   -0.521893
     21          6           0       -5.846928   -2.322519    0.114017
     22          8           0       -6.582840   -1.369568    0.223738
     23          6           0       -6.369929   -3.726491    0.037127
     24          7           0       -2.048251    1.757712   -0.375746
     25          6           0       -3.375684    1.559532   -0.285144
     26          6           0       -4.134390    2.887169   -0.377307
     27          6           0       -3.016027    3.948322   -0.099837
     28          6           0       -1.763422    3.069834   -0.296025
     29          6           0       -4.970288    3.189960   -1.693104
     30          6           0       -2.992860    4.579736    1.343043
     31          6           0       -2.842612    3.753275    2.593095
     32          7           0        0.688650    1.607675    0.007780
     33          6           0        0.683129    2.984169   -0.239968
     34          6           0        2.043031    3.538257   -0.245444
     35          6           0        2.853698    2.402482   -0.100282
     36          6           0        1.961495    1.294268    0.048175
     37          6           0        2.464238    4.983269   -0.323214
     38          6           0        4.161131    1.931813   -0.034541
     39          8           0        5.249966    2.474423   -0.139960
     40          6           0        4.087229    0.428331    0.337798
     41          6           0        5.042677   -0.183547   -0.613947
     42          8           0        4.807495   -0.442436   -1.796694
     43          8           0        6.276858   -0.327761   -0.049406
     44          6           0        7.429422   -0.631770   -0.903387
     45          1           0       -0.901594   -4.338021   -0.005472
     46          1           0       -5.098563    0.504412   -0.201672
     47          1           0       -0.589090    4.691107   -0.386450
     48          1           0        3.554879   -2.713464   -0.243693
     49          1           0        1.394974   -4.174960    0.985015
     50          1           0        1.510120   -4.243018   -1.965092
     51          1           0        1.684810   -5.559182   -0.800296
     52          1           0        3.107190   -4.480055   -1.173584
     53          1           0        2.686625   -3.259238    2.533643
     54          1           0        3.354018   -1.601918    2.447611
     55          1           0        4.876443   -3.711459    3.068356
     56          1           0        5.453067   -2.222573    2.398930
     57          1           0       -2.921295   -4.960577   -1.463862
     58          1           0       -4.333397   -5.208878   -0.765330
     59          1           0       -2.953114   -5.109086    0.381647
     60          1           0       -5.908548   -4.351403    0.801427
     61          1           0       -6.173758   -3.978785   -1.004764
     62          1           0       -7.423595   -3.907145    0.246832
     63          1           0       -4.861722    2.778523    0.428023
     64          1           0       -3.026205    4.683714   -0.904628
     65          1           0       -4.884723    2.347142   -2.378565
     66          1           0       -4.522383    4.008810   -2.254849
     67          1           0       -6.020301    3.451408   -1.553299
     68          1           0       -3.950308    5.100975    1.324097
     69          1           0       -2.199890    5.318299    1.456220
     70          1           0       -2.920340    2.694770    2.341431
     71          1           0       -3.651229    3.967151    3.291855
     72          1           0       -1.885815    3.823613    3.110101
     73          1           0        2.901609    5.237368   -1.287722
     74          1           0        3.175133    5.202902    0.473517
     75          1           0        1.515134    5.516530   -0.263523
     76          1           0        4.311210    0.258531    1.391096
     77          1           0        8.368124   -0.291030   -0.464945
     78          1           0        7.259602   -0.337481   -1.937950
     79          1           0        7.562147   -1.701973   -1.060915
 ---------------------------------------------------------------------

 SCF Done:  E(RPBE1PBE) =  -2033.68082168     A.U. after   15 cycles

 Excitation energies and oscillator strengths:

 Excited State   1:      Singlet-A      1.8950 eV  654.26 nm  f=0.3643  <S**2>=0.000
     155 ->158         0.18668
     156 ->157         0.68813
 This state for optimization and/or second-order correction.
 Total Energy, E(TD-HF/TD-DFT) =  -2033.61118083
 Copying the excited state density for this state as the 1-particle RhoCI density.

 Excited State   2:      Singlet-A      2.2581 eV  549.06 nm  f=0.0662  <S**2>=0.000
     155 ->157         0.63632
     156 ->158        -0.29840

 Excited State   3:      Singlet-A      3.0520 eV  406.24 nm  f=0.0112  <S**2>=0.000
     154 ->157         0.65407
     154 ->159        -0.17429
     154 ->160         0.11998
     156 ->158         0.12861

 Excited State   4:      Singlet-A      3.2243 eV  384.53 nm  f=0.2914  <S**2>=0.000
     153 ->157         0.26018
     154 ->157        -0.12121
     155 ->157         0.23271
     155 ->160         0.10182
     156 ->158         0.55739
     156 ->159         0.15589
     156 ->160         0.10720

 Excited State   5:      Singlet-A      3.3397 eV  371.24 nm  f=0.0061  <S**2>=0.000
     152 ->157         0.64705
     152 ->159         0.18320
     153 ->157         0.10566

 The electronic state is 1-A.
 Alpha  occ. eigenvalues --  -46.91362 -19.24618 -19.19931 -19.18643 -19.18093
 Alpha  occ. eigenvalues --  -14.41178 -14.40566 -14.39539 -14.38493 -10.35323
 Alpha  occ. eigenvalues --  -10.32902 -10.30827 -10.28318 -10.28294 -10.28080
 Alpha  occ. eigenvalues --  -10.27927 -10.27832 -10.27519 -10.26932 -10.26731
 Alpha  occ. eigenvalues --  -10.26544 -10.26295 -10.25940 -10.25740 -10.25699
 Alpha  occ. eigenvalues --  -10.25491 -10.25421 -10.25412 -10.25278 -10.25240
 Alpha  occ. eigenvalues --  -10.25132 -10.25038 -10.25013 -10.24085 -10.23979
 Alpha  occ. eigenvalues --  -10.23657 -10.23523 -10.23484 -10.23468 -10.23136
 Alpha  occ. eigenvalues --  -10.22731 -10.22651 -10.22021  -3.13789  -1.86597
 Alpha  occ. eigenvalues --   -1.86179  -1.86046  -1.09662  -1.06080  -1.03920
 Alpha  occ. eigenvalues --   -1.00785  -1.00144  -0.99279  -0.98843  -0.97786
 Alpha  occ. eigenvalues --   -0.86822  -0.83796  -0.82696  -0.82278  -0.82250
 Alpha  occ. eigenvalues --   -0.81821  -0.81020  -0.78639  -0.77901  -0.76877
 Alpha  occ. eigenvalues --   -0.76724  -0.75406  -0.74830  -0.73216  -0.71860
 Alpha  occ. eigenvalues --   -0.71321  -0.70034  -0.69549  -0.67157  -0.66118
 Alpha  occ. eigenvalues --   -0.64002  -0.63437  -0.62637  -0.61665  -0.59841
 Alpha  occ. eigenvalues --   -0.59482  -0.59259  -0.58344  -0.56358  -0.55548
 Alpha  occ. eigenvalues --   -0.53924  -0.53815  -0.52581  -0.52382  -0.52131
 Alpha  occ. eigenvalues --   -0.50844  -0.49876  -0.49632  -0.49181  -0.48733
 Alpha  occ. eigenvalues --   -0.48220  -0.47820  -0.47309  -0.47046  -0.46892
 Alpha  occ. eigenvalues --   -0.46836  -0.46155  -0.45830  -0.45249  -0.44985
 Alpha  occ. eigenvalues --   -0.44849  -0.44006  -0.43935  -0.43735  -0.43415
 Alpha  occ. eigenvalues --   -0.43158  -0.42729  -0.42667  -0.42395  -0.41859
 Alpha  occ. eigenvalues --   -0.41498  -0.41350  -0.41248  -0.40531  -0.40259
 Alpha  occ. eigenvalues --   -0.40055  -0.39674  -0.39282  -0.38881  -0.38719
 Alpha  occ. eigenvalues --   -0.38623  -0.38118  -0.37941  -0.37754  -0.37689
 Alpha  occ. eigenvalues --   -0.37217  -0.37067  -0.36768  -0.36427  -0.36094
 Alpha  occ. eigenvalues --   -0.35926  -0.35641  -0.35420  -0.34491  -0.34160
 Alpha  occ. eigenvalues --   -0.33473  -0.33190  -0.32076  -0.31509  -0.31383
 Alpha  occ. eigenvalues --   -0.30120  -0.29584  -0.28734  -0.27871  -0.27686
 Alpha  occ. eigenvalues --   -0.26359  -0.26140  -0.25530  -0.25125  -0.20677
 Alpha  occ. eigenvalues --   -0.18279
 Alpha virt. eigenvalues --   -0.10448  -0.05230  -0.03934  -0.01871  -0.00063
 Alpha virt. eigenvalues --    0.00941   0.01659   0.02045   0.03477   0.04412
 Alpha virt. eigenvalues --    0.05256   0.05512   0.06036   0.06549   0.07340

 Mulliken charges:
               1
     1  Mg  12.000238
     2  C    5.977675
     3  C    6.007313
     4  C    6.021365
     5  C    5.996657
     6  N    6.989242
     7  C    6.034115
     8  C    5.986391
     9  C    6.011453
    10  C    5.967506
    11  C    6.002530
    12  C    5.997056
    13  C    5.998314
    14  H    1.004152
    15  N    7.003588
    16  C    5.968380
    17  C    5.977985
    18  C    5.983501
    19  C    5.972064
    20  C    6.001575
    21  C    5.985497
    22  O    7.973326
    23  C    6.005635
    24  N    7.004279
    25  C    5.967627
    26  C    6.006976
    27  C    5.993843
    28  C    6.027546
    29  C    6.000108
    30  C    5.991115
    31  C    5.995247
    32  N    7.001239
    33  C    6.029896
    34  C    6.031909
    35  C    6.001824
    36  C    6.022182
    37  C    5.998023
    38  C    6.017047
    39  O    8.032514
    40  C    6.001071
    41  C    6.003905
    42  O    8.007787
    43  O    8.000377
    44  C    5.996755
    45  H    0.988219
    46  H    0.995667
    47  H    1.012352
    48  H    1.000776
    49  H    0.999062
    50  H    0.999314
    51  H    1.000059
    52  H    0.986773
    53  H    1.009514
    54  H    0.994707
    55  H    1.003143
    56  H    0.995465
    57  H    0.981518
    58  H    0.985296
    59  H    0.987382
    60  H    0.994121
    61  H    0.994526
    62  H    0.985749
    63  H    1.003594
    64  H    1.001454
    65  H    1.004157
    66  H    0.989960
    67  H    0.999345
    68  H    1.011048
    69  H    0.996425
    70  H    1.012786
    71  H    1.006039
    72  H    0.995599
    73  H    1.019384
    74  H    1.016676
    75  H    1.015224
    76  H    1.006578
    77  H    1.002908
    78  H    1.001457
    79  H    1.006895
 Sum of Mulliken charges = 312.00000

 Dipole moment (field-independent basis, Debye):
    X=              7.0752    Y=              7.1625    Z=              0.1361  Tot=             10.0687
 Quadrupole moment (field-independent basis, Debye-Ang):
   XX=             -7.4888   YY=              2.0363   ZZ=              0.3084
   XY=             -4.5895   XZ=             -1.5084   YZ=             -1.6465

 Normal termination of Gaussian 16 at Wed Oct 13 18:44:14 2021.
