 Gaussian 16, Revision A.03,
 Gaussian 16:  ES64L-G16RevA.03 25-Dec-2016

 --------------------------------------------------------
 #p PBE1PBE/Def2SVP td=(nstates=5) density=(transition=1)
 --------------------------------------------------------

 --------------------------------
 TDDFT excited states in gaussian
 --------------------------------
 Symbolic Z-matrix:
 Charge =  0 Multiplicity = 1

                         Standard orientation:
 ---------------------------------------------------------------------
 Center     Atomic      Atomic             Coordinates (Angstroms)
 Number     Number       Type             X           Y           Z
 ---------------------------------------------------------------------
      1         12           0       27.761631    0.123061    0.225618
      2          6           0       24.314844   -0.480690    0.145490
      3          6           0       28.117879   -3.065071   -1.066505
      4          6           0       31.031668    0.726117   -0.066242
      5          6           0       27.132020    3.527710    0.707635
      6          7           0       26.225668   -1.565860   -0.596750
      7          6           0       24.895144   -1.596081   -0.390188
      8          6           0       24.235946   -2.861962   -0.882764
      9          6           0       25.550188   -3.728008   -0.967989
     10          6           0       26.735300   -2.768591   -0.931036
     11          6           0       25.643774   -4.670828    0.261290
     12          6           0       23.398046   -2.602325   -2.141132
     13          6           0       23.923301   -1.641884   -3.228396
     14          1           0       23.869361   -2.162130   -4.659939
     15          7           0       29.338496   -0.992567   -0.447899
     16          6           0       29.274543   -2.310067   -0.816980
     17          6           0       30.621905   -2.890018   -0.743513
     18          6           0       31.543625   -1.776221   -0.606591
     19          6           0       30.628637   -0.622832   -0.347897
     20          6           0       30.933388   -4.380483   -1.152408
     21          6           0       33.070153   -1.828322   -0.706931
     22          8           0       33.641643   -2.880181   -0.782752
     23          6           0       33.869622   -0.558111   -0.663509
     24          7           0       28.880233    1.983054    0.104368
     25          6           0       30.287400    1.989091    0.090624
     26          6           0       30.901860    3.446190    0.226981
     27          6           0       29.588783    4.310132    0.540073
     28          6           0       28.442966    3.198553    0.490841
     29          6           0       32.117321    3.724799    1.245235
     30          6           0       29.295266    5.569553   -0.396245
     31          6           0       28.590626    6.746267    0.443298
     32          7           0       26.084491    1.348445    0.456032
     33          6           0       25.996037    2.697181    0.734746
     34          6           0       24.599562    3.047186    0.964150
     35          6           0       23.854462    1.848346    0.820748
     36          6           0       24.809066    0.841957    0.428253
     37          6           0       24.074621    4.372927    1.449668
     38          6           0       22.514123    1.177822    0.779396
     39          8           0       21.401511    1.647490    0.866614
     40          6           0       22.818569   -0.333328    0.399078
     41          6           0       22.339280   -1.170728    1.552813
     42          8           0       21.131774   -1.441673    1.770342
     43          8           0       23.429454   -1.702574    2.226182
     44          6           0       23.123623   -2.697977    3.198628
     45          1           0       28.238478   -4.102019   -1.387160
     46          1           0       32.080295    1.001787    0.065279
     47          1           0       26.969987    4.550739    1.053853
     48          1           0       23.632753   -3.331594   -0.106008
     49          1           0       25.688353   -4.360634   -1.843753
     50          1           0       26.707073   -4.763379    0.483820
     51          1           0       25.117337   -5.604541    0.068541
     52          1           0       25.288701   -4.318101    1.230101
     53          1           0       22.487947   -2.116777   -1.790253
     54          1           0       23.157845   -3.565611   -2.591275
     55          1           0       24.975671   -1.434396   -3.036159
     56          1           0       23.303965   -0.745503   -3.214327
     57          1           0       30.963293   -4.568615   -2.225978
     58          1           0       30.199161   -5.044029   -0.695429
     59          1           0       31.851227   -4.805905   -0.748225
     60          1           0       34.920667   -0.729183   -0.898465
     61          1           0       33.817136   -0.050517    0.299868
     62          1           0       33.467906   -0.015456   -1.519637
     63          1           0       31.234921    3.592975   -0.799768
     64          1           0       29.599421    4.678767    1.565385
     65          1           0       33.041179    3.567133    0.689922
     66          1           0       32.070634    3.067532    2.113081
     67          1           0       32.033378    4.749306    1.608360
     68          1           0       28.541708    5.332046   -1.147055
     69          1           0       30.200913    5.900690   -0.905032
     70          1           0       27.600906    6.971112    0.045599
     71          1           0       29.199751    7.647722    0.383382
     72          1           0       28.335607    6.571295    1.487934
     73          1           0       24.368496    5.140632    0.734669
     74          1           0       24.519086    4.609890    2.416550
     75          1           0       22.986370    4.393322    1.505578
     76          1           0       22.131539   -0.537830   -0.421759
     77          1           0       24.051879   -3.111811    3.591894
     78          1           0       22.419322   -3.431358    2.805545
     79          1           0       22.683503   -2.269010    4.098800
     80         12           0      -27.302082    0.698278    0.514842
     81          6           0      -25.600187   -2.472236   -0.047598
     82          6           0      -24.685881    2.219716   -1.106975
     83          6           0      -29.366293    3.196977   -0.308533
     84          6           0      -29.733665   -0.959425    2.213596
     85          7           0      -25.442880   -0.110197   -0.641335
     86          6           0      -24.917064   -1.452217   -0.662052
     87          6           0      -23.505540   -1.435529   -1.255431
     88          6           0      -23.094188    0.066206   -1.234798
     89          6           0      -24.462351    0.834952   -0.968239
     90          6           0      -22.022541    0.422928   -0.099011
     91          6           0      -23.290755   -2.183295   -2.538817
     92          6           0      -24.543224   -2.554508   -3.367437
     93          1           0      -24.567610   -3.253202   -4.739183
     94          7           0      -27.020215    2.557998   -0.456433
     95          6           0      -25.862861    2.979519   -1.072900
     96          6           0      -26.072140    4.384966   -1.541553
     97          6           0      -27.443257    4.584375   -1.402103
     98          6           0      -28.052683    3.426245   -0.752556
     99          6           0      -24.952670    5.170660   -2.126904
    100          6           0      -28.201747    5.854158   -1.886888
    101          8           0      -27.569807    6.692835   -2.504428
    102          6           0      -29.677598    6.052485   -1.782201
    103          7           0      -29.321816    0.935042    0.797042
    104          6           0      -29.892835    2.164168    0.469037
    105          6           0      -31.322787    2.263237    1.000363
    106          6           0      -31.377029    1.100817    2.056822
    107          6           0      -30.087693    0.349106    1.718478
    108          6           0      -31.797476    3.611760    1.600235
    109          6           0      -32.657429    0.205872    2.030088
    110          6           0      -33.684239    0.419222    3.234440
    111          7           0      -27.612525   -1.292903    1.085464
    112          6           0      -28.642463   -1.798314    1.865436
    113          6           0      -28.346798   -3.168492    2.205082
    114          6           0      -27.227768   -3.444175    1.407624
    115          6           0      -26.821919   -2.245381    0.770868
    116          6           0      -29.252620   -4.044265    3.087991
    117          6           0      -26.263660   -4.438458    1.048312
    118          8           0      -26.231845   -5.602849    1.495071
    119          6           0      -25.057495   -3.846605    0.192725
    120          6           0      -24.958648   -4.748068   -0.972488
    121          8           0      -25.885701   -5.119161   -1.700066
    122          8           0      -23.638018   -4.986459   -1.163751
    123          6           0      -23.292737   -6.031767   -2.177554
    124          1           0      -23.861655    2.699446   -1.638031
    125          1           0      -30.024804    4.027234   -0.573135
    126          1           0      -30.468832   -1.433544    2.866632
    127          1           0      -23.006364   -1.950760   -0.434748
    128          1           0      -22.804251    0.441656   -2.216321
    129          1           0      -21.132856    0.681656   -0.671768
    130          1           0      -21.902312   -0.431739    0.567148
    131          1           0      -22.413586    1.308970    0.402366
    132          1           0      -22.671078   -3.043139   -2.284967
    133          1           0      -22.656231   -1.479514   -3.078534
    134          1           0      -25.081026   -1.613557   -3.487756
    135          1           0      -25.171833   -3.234574   -2.792230
    136          1           0      -25.188659    5.281735   -3.184836
    137          1           0      -24.028411    4.617026   -1.964345
    138          1           0      -24.856509    6.115928   -1.591597
    139          1           0      -30.328085    5.388146   -2.349804
    140          1           0      -30.003020    7.008629   -2.191014
    141          1           0      -29.800880    6.040335   -0.699353
    142          1           0      -31.828773    2.044689    0.059270
    143          1           0      -31.237168    1.599771    3.016029
    144          1           0      -32.400828    4.205526    0.912821
    145          1           0      -30.932294    4.235351    1.822905
    146          1           0      -32.313918    3.388624    2.534469
    147          1           0      -32.455180   -0.864274    1.977515
    148          1           0      -33.116117    0.436725    1.068543
    149          1           0      -34.641176    0.424154    2.713172
    150          1           0      -33.547709    1.342207    3.798166
    151          1           0      -33.499599   -0.382802    3.948230
    152          1           0      -28.740749   -4.826384    3.649121
    153          1           0      -29.882512   -4.509691    2.330666
    154          1           0      -29.694112   -3.445695    3.884495
    155          1           0      -24.155176   -3.833779    0.805849
    156          1           0      -22.208055   -6.123900   -2.242947
    157          1           0      -23.659840   -5.758296   -3.166953
    158          1           0      -23.773236   -6.915683   -1.760494
 ---------------------------------------------------------------------

 SCF Done:  E(RPBE1PBE) =  -4067.33507770     A.U. after   16 cycles

 Excitation energies and oscillator strengths:

 Excited State   1:      Singlet-A      1.8048 eV  686.98 nm  f=0.3451  <S**2>=0.000
     309 -> 316        0.15269
     312 -> 314        0.69772
     312 <- 314       -0.11786
 This state for optimization and/or second-order correction.
 Total Energy, E(TD-HF/TD-DFT) =  -4067.26875366
 Copying the excited state density for this state as the 1-particle RhoCI density.

 Excited State   2:      Singlet-A      1.8968 eV  653.64 nm  f=0.3485  <S**2>=0.000
     310 -> 315        0.18782
     311 -> 313        0.68732

 Excited State   3:      Singlet-A      1.9134 eV  647.99 nm  f=0.0000  <S**2>=0.000
     312 -> 313        0.70711

 Excited State   4:      Singlet-A      2.1000 eV  590.41 nm  f=0.0000  <S**2>=0.000
     311 -> 314        0.70711

 Excited State   5:      Singlet-A      2.2341 eV  554.97 nm  f=0.1045  <S**2>=0.000
     310 -> 313        0.64929
     311 -> 315       -0.26849

 The electronic state is 1-A.
 Alpha  occ. eigenvalues --  -46.93794 -46.92662 -19.26700 -19.26044 -19.20287
 Alpha  occ. eigenvalues --  -19.19888 -19.19720 -19.19115 -19.19063 -19.17582
 Alpha  occ. eigenvalues --  -14.41946 -14.41866 -14.41202 -14.41130 -14.40064
 Alpha  occ. eigenvalues --  -14.39241 -14.39229 -14.38478 -10.37029 -10.36205
 Alpha  occ. eigenvalues --  -10.33085 -10.32471 -10.32327 -10.30940 -10.30491
 Alpha  occ. eigenvalues --  -10.29441 -10.29348 -10.29306 -10.29241 -10.29191
 Alpha  occ. eigenvalues --  -10.28994 -10.28741 -10.28450 -10.28371 -10.28364
 Alpha  occ. eigenvalues --  -10.28263 -10.28154 -10.28064 -10.27712 -10.27510
 Alpha  occ. eigenvalues --  -10.27196 -10.27087 -10.27055 -10.26874 -10.26461
 Alpha  occ. eigenvalues --  -10.26422 -10.26368 -10.26244 -10.26230 -10.26197
 Alpha  occ. eigenvalues --  -10.26193 -10.26150 -10.26023 -10.26022 -10.25807
 Alpha  occ. eigenvalues --  -10.25704 -10.25592 -10.25585 -10.25548 -10.25508
 Alpha  occ. eigenvalues --  -10.25466 -10.25444 -10.25286 -10.25212 -10.25085
 Alpha  occ. eigenvalues --  -10.25053 -10.24930 -10.24877 -10.24817 -10.24722
 Alpha  occ. eigenvalues --  -10.24489 -10.24362 -10.24305 -10.23965 -10.23944
 Alpha  occ. eigenvalues --  -10.23888 -10.23886 -10.23821 -10.23805 -10.23625
 Alpha  occ. eigenvalues --  -10.23608 -10.23528 -10.23515 -10.23487 -10.23462
 Alpha  occ. eigenvalues --  -10.22000  -3.15741  -3.14731  -1.88541  -1.88133
 Alpha  occ. eigenvalues --   -1.87952  -1.87542  -1.87128  -1.86934  -1.11234
 Alpha  occ. eigenvalues --   -1.10875  -1.06148  -1.05532  -1.05222  -1.02351
 Alpha  occ. eigenvalues --   -1.01868  -1.01598  -0.99662  -0.99343  -0.98757
 Alpha  occ. eigenvalues --   -0.98442  -0.97690  -0.97249  -0.96637  -0.94846
 Alpha  occ. eigenvalues --   -0.86893  -0.86381  -0.83631  -0.83280  -0.83203
 Alpha  occ. eigenvalues --   -0.82865  -0.82599  -0.82010  -0.81705  -0.81072
 Alpha  occ. eigenvalues --   -0.80883  -0.80495  -0.80490  -0.79818  -0.79108
 Alpha  occ. eigenvalues --   -0.78577  -0.78057  -0.77670  -0.76875  -0.76746
 Alpha  occ. eigenvalues --   -0.76573  -0.76077  -0.75324  -0.75152  -0.74742
 Alpha  occ. eigenvalues --   -0.74509  -0.72264  -0.72061  -0.71847  -0.71607
 Alpha  occ. eigenvalues --   -0.70932  -0.70826  -0.70719  -0.70332  -0.69662
 Alpha  occ. eigenvalues --   -0.69515  -0.67523  -0.67314  -0.66475  -0.66064
 Alpha  occ. eigenvalues --   -0.64253  -0.64010  -0.63779  -0.63309  -0.62761
 Alpha  occ. eigenvalues --   -0.62139  -0.61549  -0.61302  -0.60545  -0.60348
 Alpha  occ. eigenvalues --   -0.59779  -0.59434  -0.59326  -0.59241  -0.59170
 Alpha  occ. eigenvalues --   -0.58305  -0.58111  -0.56738  -0.54571  -0.54087
 Alpha  occ. eigenvalues --   -0.53884  -0.53740  -0.53663  -0.53469  -0.52826
 Alpha  occ. eigenvalues --   -0.52498  -0.52307  -0.52020  -0.51916  -0.51785
 Alpha  occ. eigenvalues --   -0.51340  -0.50777  -0.50705  -0.50626  -0.50072
 Alpha  occ. eigenvalues --   -0.49718  -0.49637  -0.49162  -0.48842  -0.48766
 Alpha  occ. eigenvalues --   -0.48354  -0.48291  -0.47800  -0.47751  -0.47503
 Alpha  occ. eigenvalues --   -0.47435  -0.47318  -0.47118  -0.46953  -0.46544
 Alpha  occ. eigenvalues --   -0.46460  -0.46179  -0.46028  -0.45901  -0.45784
 Alpha  occ. eigenvalues --   -0.45751  -0.45484  -0.45345  -0.45306  -0.45169
 Alpha  occ. eigenvalues --   -0.44630  -0.44576  -0.44548  -0.44331  -0.44316
 Alpha  occ. eigenvalues --   -0.44128  -0.43967  -0.43622  -0.43604  -0.43368
 Alpha  occ. eigenvalues --   -0.43333  -0.43065  -0.42972  -0.42788  -0.42447
 Alpha  occ. eigenvalues --   -0.42257  -0.42226  -0.41970  -0.41908  -0.41848
 Alpha  occ. eigenvalues --   -0.41593  -0.41542  -0.41350  -0.41350  -0.41219
 Alpha  occ. eigenvalues --   -0.41083  -0.40980  -0.40792  -0.40496  -0.40471
 Alpha  occ. eigenvalues --   -0.40267  -0.40203  -0.40121  -0.39957  -0.39918
 Alpha  occ. eigenvalues --   -0.39686  -0.39623  -0.39288  -0.39034  -0.38810
 Alpha  occ. eigenvalues --   -0.38798  -0.38709  -0.38676  -0.38442  -0.38327
 Alpha  occ. eigenvalues --   -0.38209  -0.38171  -0.37994  -0.37802  -0.37644
 Alpha  occ. eigenvalues --   -0.37641  -0.37548  -0.37349  -0.37198  -0.37053
 Alpha  occ. eigenvalues --   -0.37045  -0.37020  -0.36859  -0.36771  -0.36644
 Alpha  occ. eigenvalues --   -0.36630  -0.36152  -0.35940  -0.35729  -0.35277
 Alpha  occ. eigenvalues --   -0.34881  -0.34841  -0.34308  -0.34193  -0.34018
 Alpha  occ. eigenvalues --   -0.33896  -0.33363  -0.33150  -0.32393  -0.32257
 Alpha  occ. eigenvalues --   -0.32214  -0.32135  -0.31731  -0.31568  -0.31378
 Alpha  occ. eigenvalues --   -0.31369  -0.30845  -0.29799  -0.29456  -0.29252
 Alpha  occ. eigenvalues --   -0.29027  -0.28706  -0.28283  -0.27075  -0.26929
 Alpha  occ. eigenvalues --   -0.26187  -0.26073  -0.25815  -0.25767  -0.25451
 Alpha  occ. eigenvalues --   -0.25382  -0.25257  -0.24275  -0.21246  -0.20985
 Alpha  occ. eigenvalues --   -0.19037  -0.18437
 Alpha virt. eigenvalues --   -0.11166  -0.11077  -0.05542  -0.05281  -0.04135
 Alpha virt. eigenvalues --   -0.03106  -0.02404  -0.01992  -0.01986  -0.01377
 Alpha virt. eigenvalues --   -0.00132   0.00182   0.01041   0.01139   0.01973

 Mulliken charges:
               1
     1  Mg  11.999999
     2  C    6.000059
     3  C    6.000023
     4  C    5.999937
     5  C    5.999981
     6  N    6.999991
     7  C    5.999996
     8  C    5.999987
     9  C    6.000009
    10  C    5.999949
    11  C    6.000012
    12  C    5.999991
    13  C    5.999993
    14  H    1.000016
    15  N    6.999993
    16  C    5.999943
    17  C    5.999966
    18  C    5.999968
    19  C    6.000003
    20  C    6.000016
    21  C    5.999964
    22  O    7.999961
    23  C    6.000003
    24  N    7.000004
    25  C    6.000001
    26  C    6.000007
    27  C    5.999993
    28  C    6.000048
    29  C    6.000002
    30  C    5.999999
    31  C    5.999993
    32  N    7.000003
    33  C    6.000075
    34  C    6.000030
    35  C    6.000008
    36  C    6.000009
    37  C    5.999984
    38  C    6.000067
    39  O    8.000052
    40  C    5.999980
    41  C    6.000001
    42  O    8.000012
    43  O    8.000000
    44  C    6.000004
    45  H    0.999962
    46  H    1.000007
    47  H    1.000029
    48  H    0.999992
    49  H    0.999994
    50  H    1.000008
    51  H    0.999970
    52  H    0.999972
    53  H    1.000000
    54  H    1.000001
    55  H    1.000011
    56  H    1.000005
    57  H    0.999963
    58  H    0.999960
    59  H    0.999962
    60  H    0.999973
    61  H    0.999983
    62  H    0.999997
    63  H    1.000001
    64  H    1.000000
    65  H    1.000002
    66  H    0.999988
    67  H    0.999992
    68  H    1.000006
    69  H    1.000020
    70  H    1.000008
    71  H    1.000018
    72  H    0.999995
    73  H    1.000051
    74  H    1.000035
    75  H    1.000043
    76  H    1.000021
    77  H    1.000001
    78  H    0.999998
    79  H    1.000000
    80  Mg  11.999670
    81  C    5.972274
    82  C    5.991090
    83  C    6.030890
    84  C    6.007820
    85  N    6.976489
    86  C    6.026129
    87  C    5.996601
    88  C    6.002182
    89  C    5.987982
    90  C    6.001984
    91  C    5.998624
    92  C    5.994252
    93  H    1.001850
    94  N    7.007886
    95  C    5.968092
    96  C    5.972981
    97  C    5.997574
    98  C    5.955363
    99  C    6.004616
   100  C    5.987776
   101  O    7.984629
   102  C    6.001758
   103  N    7.008677
   104  C    5.960759
   105  C    6.010010
   106  C    5.988592
   107  C    6.032179
   108  C    5.999934
   109  C    5.993482
   110  C    6.001965
   111  N    7.000384
   112  C    6.030268
   113  C    6.024012
   114  C    6.001641
   115  C    6.035142
   116  C    6.001274
   117  C    6.016109
   118  O    8.032814
   119  C    6.006625
   120  C    6.003684
   121  O    8.001554
   122  O    8.002034
   123  C    6.000097
   124  H    0.986742
   125  H    0.994898
   126  H    1.015717
   127  H    0.995002
   128  H    1.000812
   129  H    0.994991
   130  H    0.986048
   131  H    1.002859
   132  H    0.997160
   133  H    1.007782
   134  H    1.009956
   135  H    0.993098
   136  H    0.982616
   137  H    0.985764
   138  H    0.982089
   139  H    0.989705
   140  H    0.989099
   141  H    0.992451
   142  H    0.999628
   143  H    1.006596
   144  H    1.002868
   145  H    1.004957
   146  H    0.991216
   147  H    0.994503
   148  H    1.008938
   149  H    1.004852
   150  H    1.005656
   151  H    0.997465
   152  H    1.014881
   153  H    1.015506
   154  H    1.013008
   155  H    1.005833
   156  H    1.004611
   157  H    1.004077
   158  H    0.998870
 Sum of Mulliken charges = 624.00000

 Dipole moment (field-independent basis, Debye):
    X=             -2.5804    Y=             -8.7981    Z=              4.0968  Tot=             10.0424
 Quadrupole moment (field-independent basis, Debye-Ang):
   XX=            138.5349   YY=             -8.4030   ZZ=              3.5261
   XY=            238.0609   XZ=           -114.9002   YZ=              2.2571

 Normal termination of Gaussian 16 at Thu Oct 14 21:35:27 2021.
