 Gaussian 16, Revision A.03,
 Gaussian 16:  ES64L-G16RevA.03 25-Dec-2016

 --------------------------------------------------------
 #p PBE1PBE/Def2SVP td=(nstates=5) density=(transition=1)
 --------------------------------------------------------

 --------------------------------
 TDDFT excited states in gaussian
 --------------------------------
 Symbolic Z-matrix:
 Charge =  0 Multiplicity = 1

                         Standard orientation:
 ---------------------------------------------------------------------
 Center     Atomic      Atomic             Coordinates (Angstroms)
 Number     Number       Type             X           Y           Z
 ---------------------------------------------------------------------
      1         12           0       24.992695    0.044312    0.065364
      2          6           0       21.737082   -1.053700   -0.602938
      3          6           0       24.983967    1.302010   -3.156249
      4          6           0       27.957109    1.433120    0.717642
      5          6           0       24.466201   -0.537227    3.471976
      6          7           0       23.317789    0.260657   -1.676992
      7          6           0       22.135050   -0.381795   -1.724527
      8          6           0       21.384528   -0.170813   -3.017519
      9          6           0       22.617730    0.329840   -3.861966
     10          6           0       23.719215    0.717047   -2.880570
     11          6           0       23.144613   -0.819296   -4.762341
     12          6           0       20.166136    0.738685   -2.814266
     13          6           0       20.269124    1.962561   -1.880455
     14          1           0       19.752684    3.279397   -2.448008
     15          7           0       26.282839    1.180962   -1.042927
     16          6           0       26.135695    1.474483   -2.372706
     17          6           0       27.445308    1.843912   -2.925481
     18          6           0       28.327985    2.052269   -1.791317
     19          6           0       27.520883    1.529580   -0.646847
     20          6           0       27.643177    2.296850   -4.422610
     21          6           0       29.733227    2.658568   -1.819038
     22          8           0       30.275380    2.896126   -2.862299
     23          6           0       30.465044    2.917717   -0.533830
     24          7           0       25.953270    0.580305    1.940346
     25          6           0       27.273537    1.066386    1.971389
     26          6           0       27.857085    1.180456    3.443038
     27          6           0       26.701476    0.465608    4.292835
     28          6           0       25.637133    0.099420    3.159694
     29          6           0       29.335388    0.637198    3.776656
     30          6           0       26.075739    1.279523    5.515529
     31          6           0       25.660903    0.281248    6.706060
     32          7           0       23.456417   -0.706160    1.267069
     33          6           0       23.428859   -0.965060    2.622357
     34          6           0       22.181035   -1.641815    2.954337
     35          6           0       21.464878   -1.786800    1.738174
     36          6           0       22.260285   -1.121199    0.736953
     37          6           0       21.812480   -2.242703    4.285495
     38          6           0       20.207660   -2.214923    1.042518
     39          8           0       19.176087   -2.659446    1.494576
     40          6           0       20.409068   -1.791764   -0.474477
     41          6           0       20.368216   -3.059739   -1.282334
     42          8           0       19.311734   -3.677099   -1.567841
     43          8           0       21.635542   -3.340376   -1.772123
     44          6           0       21.701635   -4.383259   -2.740648
     45          1           0       25.018995    1.618887   -4.200753
     46          1           0       28.980940    1.668564    1.016381
     47          1           0       24.401122   -0.892442    4.502654
     48          1           0       21.090248   -1.116449   -3.472401
     49          1           0       22.471767    1.185215   -4.520216
     50          1           0       24.223099   -0.673680   -4.828332
     51          1           0       22.610382   -0.837787   -5.711215
     52          1           0       23.125376   -1.842083   -4.384683
     53          1           0       19.413258    0.114389   -2.334077
     54          1           0       19.815920    1.058013   -3.795910
     55          1           0       21.318757    2.140419   -1.647801
     56          1           0       19.665555    1.763229   -0.995444
     57          1           0       27.316473    3.313024   -4.645087
     58          1           0       27.123670    1.603458   -5.084073
     59          1           0       28.654947    2.214344   -4.817948
     60          1           0       31.380724    3.488000   -0.693432
     61          1           0       30.724576    2.005572    0.003883
     62          1           0       29.784390    3.602100   -0.026745
     63          1           0       27.822175    2.262702    3.562256
     64          1           0       27.045115   -0.487055    4.694849
     65          1           0       30.023464    1.466673    3.617700
     66          1           0       29.600947   -0.211764    3.147308
     67          1           0       29.349471    0.292352    4.810775
     68          1           0       25.120948    1.727257    5.240065
     69          1           0       26.748590    2.071119    5.846225
     70          1           0       24.589238    0.328544    6.899871
     71          1           0       26.189143    0.564621    7.615954
     72          1           0       25.776090   -0.792301    6.560669
     73          1           0       21.827864   -1.451836    5.034660
     74          1           0       22.548714   -2.997777    4.561871
     75          1           0       20.805922   -2.660634    4.288010
     76          1           0       19.492506   -1.254924   -0.718040
     77          1           0       22.719227   -4.451699   -3.124573
     78          1           0       20.927109   -4.267986   -3.499082
     79          1           0       21.577154   -5.368131   -2.290580
     80         12           0      -24.886474    0.583624    0.451645
     81          6           0      -21.930477   -1.275319    0.378179
     82          6           0      -26.582988   -2.425599   -0.149062
     83          6           0      -27.730988    2.270896   -0.059076
     84          6           0      -23.026645    3.443719   -0.000231
     85          7           0      -24.336265   -1.684428    0.245171
     86          6           0      -23.041054   -2.095391    0.200815
     87          6           0      -22.962399   -3.654297   -0.045023
     88          6           0      -24.487042   -3.959338   -0.468735
     89          6           0      -25.191270   -2.626988   -0.161934
     90          6           0      -24.506015   -4.167990   -2.024726
     91          6           0      -22.613245   -4.328729    1.332393
     92          6           0      -22.607729   -5.880745    1.387430
     93          1           0      -23.182449   -6.789244    2.433221
     94          7           0      -26.867792   -0.024851    0.169593
     95          6           0      -27.411544   -1.306412   -0.019151
     96          6           0      -28.794766   -1.163266   -0.201162
     97          6           0      -29.171638    0.156589    0.008108
     98          6           0      -27.903390    0.865090    0.058545
     99          6           0      -29.657525   -2.369794   -0.377039
    100          6           0      -30.582425    0.832482    0.002300
    101          8           0      -30.790839    2.021713    0.217312
    102          6           0      -31.875106    0.014616   -0.064125
    103          7           0      -25.279889    2.548747   -0.083567
    104          6           0      -26.546803    3.020083   -0.086870
    105          6           0      -26.634034    4.557902   -0.140466
    106          6           0      -25.129565    4.926897   -0.263677
    107          6           0      -24.409486    3.618261    0.007906
    108          6           0      -27.637587    5.115756   -1.203621
    109          6           0      -24.615389    6.111968    0.598888
    110          6           0      -24.431229    5.848284    2.033092
    111          7           0      -22.895514    1.063729    0.322982
    112          6           0      -22.294042    2.217670    0.149076
    113          6           0      -20.835450    2.095396    0.239579
    114          6           0      -20.683797    0.675530    0.340913
    115          6           0      -21.937635    0.096338    0.349029
    116          6           0      -19.847557    3.108488    0.587125
    117          6           0      -19.677667   -0.363354    0.475229
    118          8           0      -18.479396   -0.286978    0.626139
    119          6           0      -20.481863   -1.668201    0.427624
    120          6           0      -20.006929   -2.587479   -0.702545
    121          8           0      -20.297447   -2.444166   -1.861686
    122          8           0      -19.151834   -3.533552   -0.189904
    123          6           0      -18.655006   -4.469185   -1.224957
    124          1           0      -27.107919   -3.380605   -0.205223
    125          1           0      -28.645538    2.866064   -0.010618
    126          1           0      -22.689489    4.481649   -0.012075
    127          1           0      -22.300705   -3.914481   -0.871591
    128          1           0      -24.935228   -4.817833    0.033032
    129          1           0      -24.918392   -3.354226   -2.620384
    130          1           0      -25.247891   -4.910951   -2.318554
    131          1           0      -23.532762   -4.411534   -2.450347
    132          1           0      -23.308294   -3.930218    2.070950
    133          1           0      -21.645395   -3.932946    1.641352
    134          1           0      -21.563284   -6.140891    1.213013
    135          1           0      -23.213544   -6.108362    0.511215
    136          1           0      -29.132435   -3.324423   -0.419228
    137          1           0      -30.343135   -2.171375   -1.201991
    138          1           0      -30.244181   -2.399126    0.541564
    139          1           0      -32.024777   -0.494291   -1.016403
    140          1           0      -32.772944    0.557970    0.230848
    141          1           0      -31.805900   -0.727031    0.731879
    142          1           0      -27.029764    4.707107    0.863754
    143          1           0      -24.997999    5.140371   -1.324444
    144          1           0      -28.458093    4.418415   -1.369430
    145          1           0      -27.114850    5.257745   -2.149863
    146          1           0      -28.104507    6.050885   -0.893702
    147          1           0      -25.408349    6.843818    0.448150
    148          1           0      -23.723721    6.539944    0.140371
    149          1           0      -23.458873    5.383090    2.194242
    150          1           0      -25.252906    5.253525    2.431628
    151          1           0      -24.373828    6.770424    2.612182
    152          1           0      -20.404165    3.852385    1.157620
    153          1           0      -19.387902    3.710017   -0.197241
    154          1           0      -19.071426    2.599410    1.157601
    155          1           0      -20.358972   -2.166898    1.389594
    156          1           0      -17.629525   -4.741893   -0.976430
    157          1           0      -18.497207   -4.047345   -2.217780
    158          1           0      -19.237666   -5.389791   -1.231068
 ---------------------------------------------------------------------

 SCF Done:  E(RPBE1PBE) =  -4067.38497358     A.U. after   16 cycles

 Excitation energies and oscillator strengths:

 Excited State   1:      Singlet-A      1.8847 eV  657.86 nm  f=0.3950  <S**2>=0.000
     310 -> 316        0.17970
     312 -> 314        0.69101
     312 <- 314       -0.10350
 This state for optimization and/or second-order correction.
 Total Energy, E(TD-HF/TD-DFT) =  -4067.31571351
 Copying the excited state density for this state as the 1-particle RhoCI density.

 Excited State   2:      Singlet-A      1.8968 eV  653.64 nm  f=0.3338  <S**2>=0.000
     309 -> 315        0.18758
     311 -> 313        0.68709

 Excited State   3:      Singlet-A      1.9652 eV  630.91 nm  f=0.0000  <S**2>=0.000
     312 -> 313        0.70711

 Excited State   4:      Singlet-A      2.1427 eV  578.63 nm  f=0.0000  <S**2>=0.000
     311 -> 314        0.70711

 Excited State   5:      Singlet-A      2.2341 eV  554.97 nm  f=0.1043  <S**2>=0.000
     309 -> 313        0.64925
     311 -> 315       -0.26856

 The electronic state is 1-A.
 Alpha  occ. eigenvalues --  -46.93774 -46.92101 -19.26678 -19.26430 -19.20608
 Alpha  occ. eigenvalues --  -19.20264 -19.19865 -19.19502 -19.19097 -19.19089
 Alpha  occ. eigenvalues --  -14.41846 -14.41540 -14.41181 -14.40726 -14.40044
 Alpha  occ. eigenvalues --  -14.39208 -14.38818 -14.38755 -10.37006 -10.36777
 Alpha  occ. eigenvalues --  -10.33182 -10.33063 -10.32309 -10.31681 -10.30471
 Alpha  occ. eigenvalues --  -10.29286 -10.29170 -10.29032 -10.28720 -10.28658
 Alpha  occ. eigenvalues --  -10.28470 -10.28429 -10.28344 -10.28206 -10.28043
 Alpha  occ. eigenvalues --  -10.27815 -10.27790 -10.27693 -10.27489 -10.27476
 Alpha  occ. eigenvalues --  -10.27175 -10.27126 -10.27035 -10.26855 -10.26429
 Alpha  occ. eigenvalues --  -10.26393 -10.26222 -10.26207 -10.26175 -10.26129
 Alpha  occ. eigenvalues --  -10.26001 -10.25999 -10.25710 -10.25683 -10.25596
 Alpha  occ. eigenvalues --  -10.25575 -10.25565 -10.25488 -10.25459 -10.25446
 Alpha  occ. eigenvalues --  -10.25371 -10.25265 -10.25238 -10.25194 -10.25065
 Alpha  occ. eigenvalues --  -10.24947 -10.24642 -10.24535 -10.24466 -10.24254
 Alpha  occ. eigenvalues --  -10.23924 -10.23868 -10.23830 -10.23828 -10.23799
 Alpha  occ. eigenvalues --  -10.23785 -10.23589 -10.23506 -10.23506 -10.23479
 Alpha  occ. eigenvalues --  -10.23444 -10.23258 -10.23059 -10.22860 -10.22566
 Alpha  occ. eigenvalues --  -10.22130  -3.15720  -3.14241  -1.88521  -1.88113
 Alpha  occ. eigenvalues --   -1.87932  -1.87068  -1.86630  -1.86451  -1.11573
 Alpha  occ. eigenvalues --   -1.11211  -1.06129  -1.05509  -1.05089  -1.04991
 Alpha  occ. eigenvalues --   -1.03585  -1.01845  -0.99754  -0.99322  -0.98421
 Alpha  occ. eigenvalues --   -0.98332  -0.97961  -0.97669  -0.96998  -0.96617
 Alpha  occ. eigenvalues --   -0.88232  -0.86872  -0.83717  -0.83258  -0.82775
 Alpha  occ. eigenvalues --   -0.82578  -0.82417  -0.81990  -0.81707  -0.81684
 Alpha  occ. eigenvalues --   -0.81529  -0.80612  -0.80474  -0.79798  -0.79087
 Alpha  occ. eigenvalues --   -0.78282  -0.77973  -0.77649  -0.76854  -0.76656
 Alpha  occ. eigenvalues --   -0.76057  -0.75698  -0.75140  -0.75131  -0.74721
 Alpha  occ. eigenvalues --   -0.74672  -0.72718  -0.71906  -0.71827  -0.71586
 Alpha  occ. eigenvalues --   -0.70923  -0.70911  -0.70698  -0.70439  -0.69641
 Alpha  occ. eigenvalues --   -0.69151  -0.67293  -0.66967  -0.66455  -0.66186
 Alpha  occ. eigenvalues --   -0.64371  -0.64233  -0.63758  -0.63600  -0.62771
 Alpha  occ. eigenvalues --   -0.62740  -0.61529  -0.61334  -0.60328  -0.59821
 Alpha  occ. eigenvalues --   -0.59413  -0.59305  -0.59192  -0.59149  -0.58933
 Alpha  occ. eigenvalues --   -0.58572  -0.58283  -0.57082  -0.54550  -0.54519
 Alpha  occ. eigenvalues --   -0.54019  -0.53900  -0.53863  -0.53448  -0.53028
 Alpha  occ. eigenvalues --   -0.52872  -0.52806  -0.52285  -0.51915  -0.51895
 Alpha  occ. eigenvalues --   -0.51042  -0.50757  -0.50605  -0.50169  -0.50112
 Alpha  occ. eigenvalues --   -0.50051  -0.49768  -0.49615  -0.49192  -0.48821
 Alpha  occ. eigenvalues --   -0.48531  -0.48333  -0.47789  -0.47779  -0.47553
 Alpha  occ. eigenvalues --   -0.47482  -0.47300  -0.47279  -0.46810  -0.46716
 Alpha  occ. eigenvalues --   -0.46522  -0.46159  -0.46007  -0.45729  -0.45691
 Alpha  occ. eigenvalues --   -0.45591  -0.45351  -0.45323  -0.45149  -0.44700
 Alpha  occ. eigenvalues --   -0.44610  -0.44528  -0.44514  -0.44310  -0.44151
 Alpha  occ. eigenvalues --   -0.44108  -0.44027  -0.43796  -0.43583  -0.43512
 Alpha  occ. eigenvalues --   -0.43423  -0.43348  -0.43044  -0.42931  -0.42520
 Alpha  occ. eigenvalues --   -0.42205  -0.42143  -0.41949  -0.41889  -0.41761
 Alpha  occ. eigenvalues --   -0.41573  -0.41330  -0.41314  -0.41062  -0.40816
 Alpha  occ. eigenvalues --   -0.40771  -0.40710  -0.40544  -0.40476  -0.40245
 Alpha  occ. eigenvalues --   -0.40100  -0.40089  -0.39937  -0.39823  -0.39719
 Alpha  occ. eigenvalues --   -0.39602  -0.39435  -0.39171  -0.39035  -0.39013
 Alpha  occ. eigenvalues --   -0.38825  -0.38789  -0.38655  -0.38627  -0.38420
 Alpha  occ. eigenvalues --   -0.38420  -0.38156  -0.38150  -0.37975  -0.37953
 Alpha  occ. eigenvalues --   -0.37782  -0.37706  -0.37620  -0.37363  -0.37236
 Alpha  occ. eigenvalues --   -0.37178  -0.37138  -0.37024  -0.36838  -0.36765
 Alpha  occ. eigenvalues --   -0.36619  -0.36610  -0.36131  -0.35576  -0.35255
 Alpha  occ. eigenvalues --   -0.35117  -0.34820  -0.34537  -0.34173  -0.33874
 Alpha  occ. eigenvalues --   -0.33835  -0.33379  -0.33129  -0.32795  -0.32667
 Alpha  occ. eigenvalues --   -0.32236  -0.32233  -0.32191  -0.31784  -0.31709
 Alpha  occ. eigenvalues --   -0.31391  -0.31357  -0.29784  -0.29778  -0.29481
 Alpha  occ. eigenvalues --   -0.29434  -0.28709  -0.28685  -0.26925  -0.26908
 Alpha  occ. eigenvalues --   -0.26168  -0.26050  -0.25868  -0.25748  -0.25723
 Alpha  occ. eigenvalues --   -0.25515  -0.25430  -0.24964  -0.20964  -0.20699
 Alpha  occ. eigenvalues --   -0.19016  -0.18636
 Alpha virt. eigenvalues --   -0.11145  -0.10874  -0.05522  -0.04827  -0.04114
 Alpha virt. eigenvalues --   -0.03762  -0.02384  -0.02086  -0.01966  -0.00550
 Alpha virt. eigenvalues --   -0.00109   0.00575   0.01160   0.01364   0.01997

 Mulliken charges:
               1
     1  Mg  11.999954
     2  C    6.000467
     3  C    5.999848
     4  C    5.999225
     5  C    6.000220
     6  N    7.000273
     7  C    5.999143
     8  C    6.000252
     9  C    5.999881
    10  C    6.000679
    11  C    5.999922
    12  C    6.000089
    13  C    6.000192
    14  H    0.999718
    15  N    6.999792
    16  C    6.000935
    17  C    6.000558
    18  C    6.000317
    19  C    6.001054
    20  C    5.999917
    21  C    6.000340
    22  O    8.000532
    23  C    5.999939
    24  N    6.999865
    25  C    6.001171
    26  C    5.999704
    27  C    6.000217
    28  C    5.999263
    29  C    5.999974
    30  C    6.000081
    31  C    6.000026
    32  N    7.000057
    33  C    5.999088
    34  C    5.999204
    35  C    5.999983
    36  C    5.999116
    37  C    6.000044
    38  C    5.999434
    39  O    7.999205
    40  C    5.999958
    41  C    6.000019
    42  O    7.999733
    43  O    8.000003
    44  C    6.000064
    45  H    1.000283
    46  H    1.000243
    47  H    0.999763
    48  H    0.999948
    49  H    0.999978
    50  H    0.999814
    51  H    1.000178
    52  H    1.000326
    53  H    1.000111
    54  H    0.999772
    55  H    0.999818
    56  H    1.000146
    57  H    1.000519
    58  H    1.000438
    59  H    1.000413
    60  H    1.000361
    61  H    1.000280
    62  H    1.000183
    63  H    1.000023
    64  H    0.999990
    65  H    0.999937
    66  H    1.000039
    67  H    1.000252
    68  H    0.999993
    69  H    0.999738
    70  H    1.000070
    71  H    0.999870
    72  H    1.000063
    73  H    0.999510
    74  H    0.999512
    75  H    0.999598
    76  H    0.999744
    77  H    0.999823
    78  H    0.999847
    79  H    0.999965
    80  Mg  12.001450
    81  C    5.992901
    82  C    6.013544
    83  C    6.010101
    84  C    5.979333
    85  N    7.001415
    86  C    6.020403
    87  C    5.990863
    88  C    6.010926
    89  C    5.966032
    90  C    6.001793
    91  C    5.996299
    92  C    5.999913
    93  H    1.006891
    94  N    7.003784
    95  C    5.961646
    96  C    5.986912
    97  C    5.977640
    98  C    5.978057
    99  C    6.002612
   100  C    5.987926
   101  O    7.972597
   102  C    6.004362
   103  N    6.995136
   104  C    5.970399
   105  C    6.005862
   106  C    5.990185
   107  C    6.035962
   108  C    6.002650
   109  C    5.997220
   110  C    5.995449
   111  N    7.001021
   112  C    6.033077
   113  C    6.039745
   114  C    5.997236
   115  C    6.028677
   116  C    5.995051
   117  C    6.016970
   118  O    8.024143
   119  C    5.999031
   120  C    6.003545
   121  O    8.006523
   122  O    8.000699
   123  C    5.998248
   124  H    0.991372
   125  H    0.992400
   126  H    1.007381
   127  H    1.000685
   128  H    0.998549
   129  H    1.001042
   130  H    1.000111
   131  H    0.987009
   132  H    1.006848
   133  H    0.992527
   134  H    0.997631
   135  H    1.005632
   136  H    0.982736
   137  H    0.983931
   138  H    0.983669
   139  H    0.991251
   140  H    0.986378
   141  H    0.993724
   142  H    1.001813
   143  H    1.005230
   144  H    1.007832
   145  H    0.992465
   146  H    0.994138
   147  H    1.008425
   148  H    0.996737
   149  H    0.991458
   150  H    1.009347
   151  H    1.004253
   152  H    1.020690
   153  H    1.025071
   154  H    1.014789
   155  H    1.008753
   156  H    1.003022
   157  H    1.002283
   158  H    1.006586
 Sum of Mulliken charges = 624.00000

 Dipole moment (field-independent basis, Debye):
    X=             10.2721    Y=              2.1871    Z=              0.4823  Tot=             10.5134
 Quadrupole moment (field-independent basis, Debye-Ang):
   XX=           -491.4090   YY=              4.6384   ZZ=              0.2849
   XY=            -44.0489   XZ=            -18.3655   YZ=             -0.0364

 Normal termination of Gaussian 16 at Thu Oct 14 21:54:30 2021.
