 Gaussian 16, Revision A.03,
 Gaussian 16:  ES64L-G16RevA.03 25-Dec-2016

 --------------------------------------------------------
 #p PBE1PBE/Def2SVP td=(nstates=5) density=(transition=1)
 --------------------------------------------------------

 --------------------------------
 TDDFT excited states in gaussian
 --------------------------------
 Symbolic Z-matrix:
 Charge =  0 Multiplicity = 1

                         Standard orientation:
 ---------------------------------------------------------------------
 Center     Atomic      Atomic             Coordinates (Angstroms)
 Number     Number       Type             X           Y           Z
 ---------------------------------------------------------------------
      1         12           0       11.491022    0.275864    0.524582
      2          6           0        9.414280   -2.415839    0.622974
      3          6           0       14.155445   -1.910569   -0.268417
      4          6           0       13.197787    2.916305   -0.602011
      5          6           0        8.630594    2.463815    0.795599
      6          7           0       11.705442   -1.871862    0.254647
      7          6           0       10.802612   -2.793823    0.314697
      8          6           0       11.397736   -4.246717    0.322393
      9          6           0       12.959808   -4.036794    0.328166
     10          6           0       13.006182   -2.483419    0.122893
     11          6           0       13.726861   -4.670115    1.489790
     12          6           0       10.807093   -5.165372   -0.904035
     13          6           0       10.251540   -4.468560   -2.135528
     14          1           0       10.103256   -5.224392   -3.455982
     15          7           0       13.411975    0.459583   -0.326592
     16          6           0       14.367907   -0.511165   -0.506123
     17          6           0       15.501281    0.049115   -1.103568
     18          6           0       15.258081    1.467820   -1.263503
     19          6           0       13.877698    1.680436   -0.754007
     20          6           0       16.763297   -0.770522   -1.300848
     21          6           0       16.272834    2.456658   -1.865412
     22          8           0       17.376470    2.002001   -2.241804
     23          6           0       16.066902    3.865538   -2.038895
     24          7           0       10.925525    2.433282   -0.013166
     25          6           0       11.901416    3.261970   -0.254332
     26          6           0       11.452219    4.750882   -0.242576
     27          6           0        9.996984    4.620382    0.257665
     28          6           0        9.765106    3.061683    0.398860
     29          6           0       12.256744    5.631938    0.643532
     30          6           0        8.941608    5.343906   -0.704705
     31          6           0        8.236623    6.636566   -0.120639
     32          7           0        9.451159    0.147684    0.793425
     33          6           0        8.408796    1.073828    0.924323
     34          6           0        7.135539    0.327227    1.168822
     35          6           0        7.510679   -1.014406    1.010101
     36          6           0        8.911552   -1.086548    0.750789
     37          6           0        5.805766    0.842893    1.433229
     38          6           0        6.950125   -2.286868    0.980454
     39          8           0        5.803162   -2.723740    1.155538
     40          6           0        8.153517   -3.259495    0.824459
     41          6           0        8.136241   -4.241587    2.019900
     42          8           0        8.144058   -5.460145    1.979889
     43          8           0        8.114615   -3.585817    3.231839
     44          6           0        8.057494   -4.405799    4.447822
     45          1           0       14.898242   -2.658573   -0.552813
     46          1           0       13.752755    3.834718   -0.803441
     47          1           0        7.807140    3.135710    1.046028
     48          1           0       11.188471   -4.653604    1.312072
     49          1           0       13.428476   -4.413818   -0.581377
     50          1           0       14.165585   -3.887715    2.108734
     51          1           0       14.549236   -5.299015    1.146823
     52          1           0       13.154546   -5.351849    2.118977
     53          1           0       10.078180   -5.778779   -0.373869
     54          1           0       11.533933   -5.818424   -1.387554
     55          1           0       10.938544   -3.633827   -2.272156
     56          1           0        9.301412   -4.041026   -1.814756
     57          1           0       17.703977   -0.432124   -0.865665
     58          1           0       16.887112   -0.965198   -2.366410
     59          1           0       16.608425   -1.762807   -0.877629
     60          1           0       15.895168    4.468646   -1.147518
     61          1           0       15.132796    4.049129   -2.568829
     62          1           0       16.814960    4.342718   -2.671221
     63          1           0       11.475014    5.310964   -1.177305
     64          1           0        9.861504    4.965807    1.282638
     65          1           0       12.956051    6.290138    0.128169
     66          1           0       12.963944    5.044331    1.230019
     67          1           0       11.600283    6.232026    1.273443
     68          1           0        8.114709    4.653011   -0.874543
     69          1           0        9.365467    5.724079   -1.633190
     70          1           0        8.247498    7.427991   -0.869007
     71          1           0        8.861147    7.021166    0.685784
     72          1           0        7.202993    6.335859    0.051484
     73          1           0        5.981399    1.778852    1.964061
     74          1           0        5.248950    0.159776    2.075641
     75          1           0        5.299816    0.886872    0.469225
     76          1           0        7.997874   -4.015333    0.055009
     77          1           0        7.621355   -3.804337    5.245623
     78          1           0        8.996031   -4.755773    4.877360
     79          1           0        7.523758   -5.347867    4.318987
     80         12           0      -10.699830    0.727409    0.295858
     81          6           0      -12.135489   -2.329895   -0.513348
     82          6           0       -7.817189   -0.225768   -1.531816
     83          6           0       -9.786293    3.932256    0.053866
     84          6           0      -13.861547    1.758601    1.465840
     85          7           0      -10.190799   -1.003438   -1.219776
     86          6           0      -10.860905   -2.199215   -1.122779
     87          6           0      -10.166745   -3.281176   -1.888990
     88          6           0       -8.683244   -2.697372   -1.992805
     89          6           0       -8.864901   -1.191146   -1.590229
     90          6           0       -7.569688   -3.437032   -1.093043
     91          6           0      -10.958806   -3.607591   -3.257761
     92          6           0      -10.764060   -4.945667   -3.765542
     93          1           0      -10.251471   -4.986451   -5.220772
     94          7           0       -8.976342    1.712420   -0.435745
     95          6           0       -7.891594    1.138318   -1.155988
     96          6           0       -6.926814    2.195185   -1.408819
     97          6           0       -7.455092    3.422856   -0.940706
     98          6           0       -8.770851    3.043799   -0.324419
     99          6           0       -5.694487    1.962207   -2.200779
    100          6           0       -6.748927    4.830231   -1.130348
    101          8           0       -5.662812    4.833930   -1.707696
    102          6           0       -7.204589    6.072365   -0.372360
    103          7           0      -11.749471    2.534691    0.616186
    104          6           0      -11.067999    3.706635    0.552906
    105          6           0      -12.027401    5.020421    0.844356
    106          6           0      -13.288010    4.289895    1.514275
    107          6           0      -12.996680    2.781352    1.235713
    108          6           0      -11.430131    6.104569    1.819300
    109          6           0      -14.625044    4.723389    0.910247
    110          6           0      -15.729155    5.350515    1.794830
    111          7           0      -12.509240   -0.176155    0.712321
    112          6           0      -13.663411    0.354894    1.210588
    113          6           0      -14.609901   -0.703150    1.433168
    114          6           0      -14.024498   -1.793384    0.685790
    115          6           0      -12.760146   -1.369126    0.242675
    116          6           0      -15.988601   -0.561922    2.010657
    117          6           0      -14.291590   -3.125158    0.183926
    118          8           0      -15.168812   -3.886670    0.457736
    119          6           0      -13.018245   -3.613195   -0.610861
    120          6           0      -12.272677   -4.803551    0.031801
    121          8           0      -11.935131   -4.858265    1.194830
    122          8           0      -12.140660   -5.843306   -0.911617
    123          6           0      -11.626029   -7.089580   -0.430033
    124          1           0       -6.931795   -0.604374   -2.045261
    125          1           0       -9.649041    4.982396   -0.211618
    126          1           0      -14.816754    2.118299    1.852692
    127          1           0       -9.976571   -4.165345   -1.279685
    128          1           0       -8.374029   -2.749915   -3.037328
    129          1           0       -6.829425   -3.804703   -1.803512
    130          1           0       -7.979685   -4.248998   -0.493245
    131          1           0       -7.127517   -2.665336   -0.462244
    132          1           0      -10.534563   -2.896809   -3.966723
    133          1           0      -11.968766   -3.295310   -2.990757
    134          1           0      -11.734542   -5.436031   -3.699423
    135          1           0      -10.010061   -5.464256   -3.173447
    136          1           0       -5.494484    0.898693   -2.330097
    137          1           0       -4.826146    2.330757   -1.654080
    138          1           0       -5.775239    2.398353   -3.196725
    139          1           0       -8.194803    6.425467   -0.661996
    140          1           0       -6.456374    6.848075   -0.538573
    141          1           0       -7.181567    5.828264    0.689768
    142          1           0      -12.277271    5.370555   -0.156804
    143          1           0      -13.315434    4.327501    2.603499
    144          1           0      -11.238431    7.026171    1.270524
    145          1           0      -10.489988    5.740070    2.235004
    146          1           0      -12.175548    6.265671    2.598823
    147          1           0      -15.074279    3.927721    0.316373
    148          1           0      -14.543842    5.430390    0.084779
    149          1           0      -16.628866    4.760458    1.971446
    150          1           0      -16.066259    6.226431    1.240019
    151          1           0      -15.341423    5.624097    2.776850
    152          1           0      -16.305383   -1.557380    2.322790
    153          1           0      -16.784540   -0.426279    1.279089
    154          1           0      -16.093893    0.212538    2.769953
    155          1           0      -13.439035   -3.942321   -1.561386
    156          1           0      -11.177701   -7.477441   -1.345304
    157          1           0      -12.420882   -7.800008   -0.203551
    158          1           0      -10.979242   -6.936469    0.432940
 ---------------------------------------------------------------------

 SCF Done:  E(RPBE1PBE) =  -4067.31534747     A.U. after   19 cycles

 Excitation energies and oscillator strengths:

 Excited State   1:      Singlet-A      1.6883 eV  734.39 nm  f=0.0000  <S**2>=0.000
     312 -> 313        0.70708
 This state for optimization and/or second-order correction.
 Total Energy, E(TD-HF/TD-DFT) =  -4067.25330501
 Copying the excited state density for this state as the 1-particle RhoCI density.

 Excited State   2:      Singlet-A      1.8312 eV  677.07 nm  f=0.5215  <S**2>=0.000
     310 -> 316        0.16620
     311 -> 313       -0.12084
     312 -> 314        0.68486
     312 <- 314       -0.10930

 Excited State   3:      Singlet-A      1.8543 eV  668.65 nm  f=0.2926  <S**2>=0.000
     309 -> 315       -0.15658
     311 -> 313        0.68656
     312 -> 314        0.12042
     311 <- 313       -0.12062

 Excited State   4:      Singlet-A      2.0351 eV  609.23 nm  f=0.0000  <S**2>=0.000
     311 -> 314        0.70709

 Excited State   5:      Singlet-A      2.2470 eV  551.79 nm  f=0.0106  <S**2>=0.000
     309 -> 313        0.41049
     310 -> 314        0.50303
     311 -> 315        0.15482
     312 -> 316       -0.21023

 The electronic state is 1-A.
 Alpha  occ. eigenvalues --  -46.93701 -46.93139 -19.25749 -19.25481 -19.20902
 Alpha  occ. eigenvalues --  -19.20311 -19.19716 -19.19011 -19.18579 -19.17853
 Alpha  occ. eigenvalues --  -14.42688 -14.41652 -14.41606 -14.41391 -14.40099
 Alpha  occ. eigenvalues --  -14.39697 -14.39592 -14.38783 -10.37080 -10.36732
 Alpha  occ. eigenvalues --  -10.33377 -10.31641 -10.31582 -10.31252 -10.30541
 Alpha  occ. eigenvalues --  -10.29335 -10.29244 -10.29144 -10.28850 -10.28686
 Alpha  occ. eigenvalues --  -10.28676 -10.28622 -10.28582 -10.28557 -10.28499
 Alpha  occ. eigenvalues --  -10.28407 -10.28374 -10.28353 -10.27826 -10.27614
 Alpha  occ. eigenvalues --  -10.27120 -10.27070 -10.27065 -10.27034 -10.26957
 Alpha  occ. eigenvalues --  -10.26525 -10.26324 -10.26281 -10.26180 -10.26170
 Alpha  occ. eigenvalues --  -10.26155 -10.25982 -10.25917 -10.25850 -10.25820
 Alpha  occ. eigenvalues --  -10.25636 -10.25555 -10.25536 -10.25531 -10.25414
 Alpha  occ. eigenvalues --  -10.25298 -10.25045 -10.25034 -10.24799 -10.24787
 Alpha  occ. eigenvalues --  -10.24777 -10.24752 -10.24393 -10.24282 -10.24225
 Alpha  occ. eigenvalues --  -10.24166 -10.24110 -10.24103 -10.24080 -10.24021
 Alpha  occ. eigenvalues --  -10.23927 -10.23838 -10.23544 -10.23509 -10.23325
 Alpha  occ. eigenvalues --  -10.23297 -10.23073 -10.23066 -10.22643 -10.22567
 Alpha  occ. eigenvalues --  -10.22556  -3.15690  -3.15139  -1.88506  -1.88097
 Alpha  occ. eigenvalues --   -1.87926  -1.87878  -1.87568  -1.87327  -1.10852
 Alpha  occ. eigenvalues --   -1.10791  -1.05665  -1.04843  -1.03591  -1.03524
 Alpha  occ. eigenvalues --   -1.02518  -1.02143  -0.99766  -0.99586  -0.99105
 Alpha  occ. eigenvalues --   -0.98190  -0.97350  -0.97114  -0.96889  -0.96130
 Alpha  occ. eigenvalues --   -0.87228  -0.86635  -0.84020  -0.83713  -0.83488
 Alpha  occ. eigenvalues --   -0.83317  -0.82545  -0.82439  -0.82373  -0.82087
 Alpha  occ. eigenvalues --   -0.81131  -0.80754  -0.80035  -0.79747  -0.78997
 Alpha  occ. eigenvalues --   -0.78404  -0.78248  -0.77639  -0.77216  -0.76850
 Alpha  occ. eigenvalues --   -0.76809  -0.76334  -0.75677  -0.75442  -0.74576
 Alpha  occ. eigenvalues --   -0.74552  -0.72834  -0.72182  -0.71699  -0.71532
 Alpha  occ. eigenvalues --   -0.71253  -0.70957  -0.70639  -0.70436  -0.69703
 Alpha  occ. eigenvalues --   -0.69211  -0.67832  -0.67101  -0.66424  -0.65727
 Alpha  occ. eigenvalues --   -0.63967  -0.63587  -0.63248  -0.62881  -0.62750
 Alpha  occ. eigenvalues --   -0.61797  -0.61368  -0.60785  -0.60399  -0.60281
 Alpha  occ. eigenvalues --   -0.60140  -0.59359  -0.59290  -0.59103  -0.58817
 Alpha  occ. eigenvalues --   -0.58646  -0.57834  -0.57358  -0.55392  -0.54573
 Alpha  occ. eigenvalues --   -0.54181  -0.54026  -0.53572  -0.53496  -0.53155
 Alpha  occ. eigenvalues --   -0.53009  -0.52659  -0.52578  -0.51996  -0.51686
 Alpha  occ. eigenvalues --   -0.51010  -0.50801  -0.50251  -0.49980  -0.49901
 Alpha  occ. eigenvalues --   -0.49519  -0.49286  -0.49194  -0.48956  -0.48571
 Alpha  occ. eigenvalues --   -0.48413  -0.48025  -0.47796  -0.47752  -0.47485
 Alpha  occ. eigenvalues --   -0.47292  -0.47112  -0.47068  -0.46912  -0.46726
 Alpha  occ. eigenvalues --   -0.46543  -0.46254  -0.46153  -0.46092  -0.45706
 Alpha  occ. eigenvalues --   -0.45625  -0.45537  -0.45418  -0.45294  -0.44837
 Alpha  occ. eigenvalues --   -0.44745  -0.44499  -0.44445  -0.44219  -0.44182
 Alpha  occ. eigenvalues --   -0.44149  -0.43866  -0.43860  -0.43786  -0.43659
 Alpha  occ. eigenvalues --   -0.43425  -0.43373  -0.43270  -0.43058  -0.43009
 Alpha  occ. eigenvalues --   -0.42637  -0.42500  -0.42385  -0.42088  -0.41996
 Alpha  occ. eigenvalues --   -0.41894  -0.41631  -0.41542  -0.41517  -0.41360
 Alpha  occ. eigenvalues --   -0.41092  -0.40995  -0.40807  -0.40665  -0.40565
 Alpha  occ. eigenvalues --   -0.40484  -0.40360  -0.40062  -0.39895  -0.39828
 Alpha  occ. eigenvalues --   -0.39693  -0.39574  -0.39511  -0.39316  -0.39290
 Alpha  occ. eigenvalues --   -0.39138  -0.38790  -0.38632  -0.38555  -0.38493
 Alpha  occ. eigenvalues --   -0.38404  -0.38184  -0.37880  -0.37602  -0.37527
 Alpha  occ. eigenvalues --   -0.37471  -0.37415  -0.37262  -0.37190  -0.37010
 Alpha  occ. eigenvalues --   -0.36841  -0.36748  -0.36346  -0.36345  -0.35913
 Alpha  occ. eigenvalues --   -0.35820  -0.35818  -0.35690  -0.35562  -0.35275
 Alpha  occ. eigenvalues --   -0.34984  -0.34745  -0.34727  -0.33994  -0.33589
 Alpha  occ. eigenvalues --   -0.33568  -0.33092  -0.33034  -0.32876  -0.32691
 Alpha  occ. eigenvalues --   -0.32028  -0.31839  -0.31572  -0.31570  -0.31306
 Alpha  occ. eigenvalues --   -0.31193  -0.30633  -0.29776  -0.29719  -0.29622
 Alpha  occ. eigenvalues --   -0.29356  -0.29292  -0.28832  -0.27140  -0.26844
 Alpha  occ. eigenvalues --   -0.26378  -0.26172  -0.25855  -0.25548  -0.25051
 Alpha  occ. eigenvalues --   -0.25044  -0.24917  -0.24831  -0.21796  -0.21155
 Alpha  occ. eigenvalues --   -0.19311  -0.18750
 Alpha virt. eigenvalues --   -0.11931  -0.11226  -0.05422  -0.05110  -0.04187
 Alpha virt. eigenvalues --   -0.03729  -0.02356  -0.02278  -0.02032  -0.01392
 Alpha virt. eigenvalues --   -0.00061   0.00440   0.00481   0.00847   0.01416

 Mulliken charges:
               1
     1  Mg  12.000000
     2  C    6.000000
     3  C    6.000000
     4  C    6.000000
     5  C    6.000000
     6  N    7.000000
     7  C    6.000000
     8  C    6.000000
     9  C    6.000000
    10  C    6.000000
    11  C    6.000000
    12  C    6.000000
    13  C    6.000000
    14  H    1.000000
    15  N    7.000000
    16  C    6.000000
    17  C    6.000000
    18  C    6.000000
    19  C    6.000000
    20  C    6.000000
    21  C    6.000000
    22  O    8.000000
    23  C    6.000000
    24  N    7.000000
    25  C    6.000000
    26  C    6.000000
    27  C    6.000000
    28  C    6.000000
    29  C    6.000000
    30  C    6.000000
    31  C    6.000000
    32  N    7.000000
    33  C    6.000000
    34  C    6.000000
    35  C    6.000000
    36  C    6.000000
    37  C    6.000000
    38  C    6.000000
    39  O    8.000000
    40  C    6.000000
    41  C    6.000000
    42  O    8.000000
    43  O    8.000000
    44  C    6.000000
    45  H    1.000000
    46  H    1.000000
    47  H    1.000000
    48  H    1.000000
    49  H    1.000000
    50  H    1.000000
    51  H    1.000000
    52  H    1.000000
    53  H    1.000000
    54  H    1.000000
    55  H    1.000000
    56  H    1.000000
    57  H    1.000000
    58  H    1.000000
    59  H    1.000000
    60  H    1.000000
    61  H    1.000000
    62  H    1.000000
    63  H    1.000000
    64  H    1.000000
    65  H    1.000000
    66  H    1.000000
    67  H    1.000000
    68  H    1.000000
    69  H    1.000000
    70  H    1.000000
    71  H    1.000000
    72  H    1.000000
    73  H    1.000000
    74  H    1.000000
    75  H    1.000000
    76  H    1.000000
    77  H    1.000000
    78  H    1.000000
    79  H    1.000000
    80  Mg  12.000000
    81  C    6.000000
    82  C    6.000000
    83  C    6.000000
    84  C    6.000000
    85  N    7.000000
    86  C    6.000000
    87  C    6.000000
    88  C    6.000000
    89  C    6.000000
    90  C    6.000000
    91  C    6.000000
    92  C    6.000000
    93  H    1.000000
    94  N    7.000000
    95  C    6.000000
    96  C    6.000000
    97  C    6.000000
    98  C    6.000000
    99  C    6.000000
   100  C    6.000000
   101  O    8.000000
   102  C    6.000000
   103  N    7.000000
   104  C    6.000000
   105  C    6.000000
   106  C    6.000000
   107  C    6.000000
   108  C    6.000000
   109  C    6.000000
   110  C    6.000000
   111  N    7.000000
   112  C    6.000000
   113  C    6.000000
   114  C    6.000000
   115  C    6.000000
   116  C    6.000000
   117  C    6.000000
   118  O    8.000000
   119  C    6.000000
   120  C    6.000000
   121  O    8.000000
   122  O    8.000000
   123  C    6.000000
   124  H    1.000000
   125  H    1.000000
   126  H    1.000000
   127  H    1.000000
   128  H    1.000000
   129  H    1.000000
   130  H    1.000000
   131  H    1.000000
   132  H    1.000000
   133  H    1.000000
   134  H    1.000000
   135  H    1.000000
   136  H    1.000000
   137  H    1.000000
   138  H    1.000000
   139  H    1.000000
   140  H    1.000000
   141  H    1.000000
   142  H    1.000000
   143  H    1.000000
   144  H    1.000000
   145  H    1.000000
   146  H    1.000000
   147  H    1.000000
   148  H    1.000000
   149  H    1.000000
   150  H    1.000000
   151  H    1.000000
   152  H    1.000000
   153  H    1.000000
   154  H    1.000000
   155  H    1.000000
   156  H    1.000000
   157  H    1.000000
   158  H    1.000000
 Sum of Mulliken charges = 624.00000

 Dipole moment (field-independent basis, Debye):
    X=             -0.0000    Y=             -0.0000    Z=              0.0000  Tot=              0.0000
 Quadrupole moment (field-independent basis, Debye-Ang):
   XX=              0.0000   YY=             -0.0000   ZZ=              0.0000
   XY=              0.0000   XZ=             -0.0000   YZ=              0.0000

 Normal termination of Gaussian 16 at Thu Oct 14 05:03:46 2021.
