 Gaussian 16, Revision A.03,
 Gaussian 16:  ES64L-G16RevA.03 25-Dec-2016

 --------------------------------------------------------
 #p PBE1PBE/Def2SVP td=(nstates=5) density=(transition=1)
 --------------------------------------------------------

 --------------------------------
 TDDFT excited states in gaussian
 --------------------------------
 Symbolic Z-matrix:
 Charge =  0 Multiplicity = 1

                         Standard orientation:
 ---------------------------------------------------------------------
 Center     Atomic      Atomic             Coordinates (Angstroms)
 Number     Number       Type             X           Y           Z
 ---------------------------------------------------------------------
      1         12           0      -13.502658   -0.587644    0.281098
      2          6           0      -13.325324    2.717415   -1.007058
      3          6           0      -12.067163    0.745470    3.226294
      4          6           0      -13.267976   -3.620393    1.460800
      5          6           0      -14.630928   -1.679495   -2.822361
      6          7           0      -12.754922    1.536773    1.036938
      7          6           0      -12.912158    2.696664    0.318592
      8          6           0      -12.541585    3.942389    1.105468
      9          6           0      -12.014992    3.245007    2.432345
     10          6           0      -12.325572    1.750777    2.254890
     11          6           0      -10.566993    3.633269    2.716538
     12          6           0      -13.780637    4.836822    1.329670
     13          6           0      -13.593714    6.401841    1.312469
     14          1           0      -12.174094    6.968685    1.549491
     15          7           0      -12.840085   -1.343957    2.128466
     16          6           0      -12.216372   -0.638265    3.157781
     17          6           0      -11.907163   -1.587237    4.239056
     18          6           0      -12.352062   -2.863698    3.763229
     19          6           0      -12.884415   -2.605014    2.411674
     20          6           0      -11.217548   -1.215339    5.440976
     21          6           0      -12.283465   -4.215828    4.465935
     22          8           0      -12.623093   -5.257753    3.883015
     23          6           0      -11.980005   -4.302414    5.910141
     24          7           0      -13.797290   -2.409099   -0.599143
     25          6           0      -13.732727   -3.522267    0.136101
     26          6           0      -14.034179   -4.787228   -0.731584
     27          6           0      -14.647495   -4.142254   -2.014856
     28          6           0      -14.349341   -2.684566   -1.853748
     29          6           0      -12.796521   -5.729015   -0.954516
     30          6           0      -16.195494   -4.424409   -1.918417
     31          6           0      -17.154569   -3.363991   -1.275723
     32          7           0      -14.005673    0.293170   -1.517415
     33          6           0      -14.443913   -0.307041   -2.711735
     34          6           0      -14.569624    0.751339   -3.744402
     35          6           0      -14.091082    1.898697   -3.122641
     36          6           0      -13.788430    1.643477   -1.801860
     37          6           0      -14.810928    0.397115   -5.132465
     38          6           0      -13.715651    3.278348   -3.422076
     39          8           0      -13.774204    3.857809   -4.500731
     40          6           0      -13.165511    3.885557   -2.047134
     41          6           0      -11.774558    4.378228   -2.196311
     42          8           0      -10.751524    3.748384   -1.943690
     43          8           0      -11.806525    5.706669   -2.660968
     44          6           0      -10.592628    6.433321   -2.957197
     45          1           0      -11.862589    1.099817    4.239129
     46          1           0      -13.234565   -4.658065    1.800404
     47          1           0      -15.029846   -2.135319   -3.730633
     48          1           0      -11.760536    4.528736    0.620772
     49          1           0      -12.559608    3.715475    3.250518
     50          1           0      -10.392369    4.069001    3.699652
     51          1           0      -10.101856    4.311418    2.001052
     52          1           0      -10.000183    2.701762    2.746366
     53          1           0      -14.273399    4.587676    2.269386
     54          1           0      -14.418903    4.493764    0.514664
     55          1           0      -14.160065    6.859022    2.123158
     56          1           0      -14.148085    6.741872    0.437752
     57          1           0      -11.833363   -1.571567    6.267047
     58          1           0      -10.888690   -0.177509    5.397033
     59          1           0      -10.287046   -1.767168    5.304057
     60          1           0      -10.935487   -4.099847    6.148808
     61          1           0      -12.170187   -5.317434    6.258424
     62          1           0      -12.523898   -3.500793    6.408994
     63          1           0      -14.742203   -5.267989   -0.056509
     64          1           0      -14.274402   -4.613381   -2.924568
     65          1           0      -12.813400   -6.544400   -0.231234
     66          1           0      -11.912269   -5.093016   -0.928787
     67          1           0      -12.905510   -6.128201   -1.962779
     68          1           0      -16.352884   -5.443933   -1.565849
     69          1           0      -16.526990   -4.302348   -2.950017
     70          1           0      -17.809865   -3.968635   -0.649421
     71          1           0      -17.773014   -2.846806   -2.010440
     72          1           0      -16.687263   -2.624314   -0.626544
     73          1           0      -14.120098   -0.397428   -5.411627
     74          1           0      -14.567136    1.281261   -5.722363
     75          1           0      -15.873817    0.245656   -5.318725
     76          1           0      -13.828845    4.732089   -1.867039
     77          1           0      -10.320122    6.408888   -4.012020
     78          1           0       -9.815922    6.227191   -2.220604
     79          1           0      -10.881051    7.438136   -2.647236
     80         12           0       12.644240   -0.748864   -0.296028
     81          6           0       14.799475    2.049428    0.499523
     82          6           0       10.224715    1.062612    0.844953
     83          6           0       10.904624   -3.496143   -0.833371
     84          6           0       15.566223   -2.861122   -0.754315
     85          7           0       12.543487    1.414081    0.471635
     86          6           0       13.494085    2.379527    0.730721
     87          6           0       12.856560    3.589028    1.313424
     88          6           0       11.503236    3.060417    1.854451
     89          6           0       11.410246    1.740219    1.053560
     90          6           0       11.488085    2.784039    3.373885
     91          6           0       12.585319    4.633733    0.188279
     92          6           0       12.939926    6.134422    0.522633
     93          1           0       13.154603    7.175632   -0.646907
     94          7           0       10.703275   -1.124722   -0.048281
     95          6           0        9.818947   -0.238726    0.325435
     96          6           0        8.503917   -0.843920    0.229944
     97          6           0        8.740582   -2.101999   -0.372478
     98          6           0       10.166216   -2.284649   -0.410704
     99          6           0        7.236110   -0.040561    0.572415
    100          6           0        7.696400   -3.086815   -0.819500
    101          8           0        8.021776   -4.136166   -1.288923
    102          6           0        6.255313   -2.696777   -0.764537
    103          7           0       13.244283   -2.995200   -0.465265
    104          6           0       12.256329   -3.808012   -0.833933
    105          6           0       12.762575   -5.095580   -1.366833
    106          6           0       14.296889   -4.921390   -1.134575
    107          6           0       14.435803   -3.474395   -0.741343
    108          6           0       12.129960   -6.421845   -0.810894
    109          6           0       15.117374   -5.328883   -2.420130
    110          6           0       15.909090   -6.666172   -2.436899
    111          7           0       14.668338   -0.556946   -0.180322
    112          6           0       15.747928   -1.426024   -0.454616
    113          6           0       17.020282   -0.688957   -0.310041
    114          6           0       16.670418    0.611735    0.027052
    115          6           0       15.291881    0.665843    0.144551
    116          6           0       18.430833   -1.323770   -0.368730
    117          6           0       17.277738    1.947066    0.332048
    118          8           0       18.409006    2.371779    0.335645
    119          6           0       16.081325    2.905153    0.825410
    120          6           0       16.169037    4.196275    0.248591
    121          8           0       15.583428    4.487654   -0.803646
    122          8           0       16.983071    5.119227    0.897828
    123          6           0       16.957806    6.546243    0.452350
    124          1           0        9.315952    1.579870    1.157689
    125          1           0       10.325073   -4.389720   -1.073999
    126          1           0       16.453561   -3.479524   -0.898077
    127          1           0       13.427166    3.929302    2.177951
    128          1           0       10.632015    3.693540    1.687567
    129          1           0       10.734949    3.399737    3.866517
    130          1           0       12.479764    3.033327    3.750269
    131          1           0       11.319710    1.741456    3.645104
    132          1           0       11.512906    4.567518    0.003937
    133          1           0       13.112766    4.264842   -0.691158
    134          1           0       13.816760    6.127948    1.169538
    135          1           0       12.075661    6.446460    1.110167
    136          1           0        6.655281    0.090367   -0.341522
    137          1           0        7.396348    0.915785    1.069053
    138          1           0        6.560928   -0.645977    1.176470
    139          1           0        6.028919   -1.845822   -1.406438
    140          1           0        5.884356   -2.319373    0.188319
    141          1           0        5.655839   -3.520354   -1.153224
    142          1           0       12.583673   -5.098090   -2.442057
    143          1           0       14.590583   -5.476626   -0.243493
    144          1           0       11.302936   -6.118191   -0.169920
    145          1           0       12.802515   -7.137384   -0.336531
    146          1           0       11.745871   -6.996740   -1.653721
    147          1           0       15.871580   -4.565447   -2.612955
    148          1           0       14.438543   -5.133739   -3.250306
    149          1           0       15.725414   -7.192960   -3.373163
    150          1           0       15.614428   -7.273174   -1.580678
    151          1           0       16.982232   -6.478150   -2.386349
    152          1           0       18.390316   -2.154204   -1.073039
    153          1           0       18.657327   -1.777694    0.596305
    154          1           0       19.193133   -0.603241   -0.666012
    155          1           0       16.150215    2.992414    1.909327
    156          1           0       15.970833    6.986427    0.601413
    157          1           0       17.440190    6.671657   -0.516277
    158          1           0       17.505685    7.112683    1.205288
 ---------------------------------------------------------------------

 SCF Done:  E(RPBE1PBE) =  -4067.34525164     A.U. after   16 cycles

 Excitation energies and oscillator strengths:

 Excited State   1:      Singlet-A      1.7893 eV  692.91 nm  f=0.0000  <S**2>=0.000
     312 -> 313        0.70710
 This state for optimization and/or second-order correction.
 Total Energy, E(TD-HF/TD-DFT) =  -4067.27949497
 Copying the excited state density for this state as the 1-particle RhoCI density.

 Excited State   2:      Singlet-A      1.8805 eV  659.30 nm  f=0.4012  <S**2>=0.000
     310 -> 317        0.15530
     311 -> 313        0.67815
     312 -> 314       -0.15461
     311 <- 313       -0.10717

 Excited State   3:      Singlet-A      1.8855 eV  657.57 nm  f=0.3299  <S**2>=0.000
     309 -> 315       -0.18043
     311 -> 313        0.15609
     312 -> 314        0.67112

 Excited State   4:      Singlet-A      2.1415 eV  578.95 nm  f=0.0000  <S**2>=0.000
     311 -> 314        0.70710

 Excited State   5:      Singlet-A      2.2635 eV  547.76 nm  f=0.0727  <S**2>=0.000
     309 -> 314        0.63957
     312 -> 315        0.29071

 The electronic state is 1-A.
 Alpha  occ. eigenvalues --  -46.92825 -46.91979 -19.24727 -19.24660 -19.20156
 Alpha  occ. eigenvalues --  -19.20066 -19.19721 -19.19212 -19.18878 -19.18788
 Alpha  occ. eigenvalues --  -14.41508 -14.41180 -14.41046 -14.39728 -14.39676
 Alpha  occ. eigenvalues --  -14.39271 -14.39221 -14.38783 -10.36529 -10.35513
 Alpha  occ. eigenvalues --  -10.33325 -10.32702 -10.32321 -10.32003 -10.28886
 Alpha  occ. eigenvalues --  -10.28751 -10.28619 -10.28499 -10.28496 -10.28479
 Alpha  occ. eigenvalues --  -10.28178 -10.28091 -10.27995 -10.27929 -10.27928
 Alpha  occ. eigenvalues --  -10.27916 -10.27839 -10.27509 -10.27454 -10.27203
 Alpha  occ. eigenvalues --  -10.26820 -10.26644 -10.26633 -10.26607 -10.26471
 Alpha  occ. eigenvalues --  -10.26421 -10.26237 -10.25981 -10.25939 -10.25870
 Alpha  occ. eigenvalues --  -10.25809 -10.25749 -10.25535 -10.25401 -10.25322
 Alpha  occ. eigenvalues --  -10.25199 -10.25182 -10.25087 -10.25072 -10.25046
 Alpha  occ. eigenvalues --  -10.24840 -10.24738 -10.24671 -10.24595 -10.24509
 Alpha  occ. eigenvalues --  -10.24504 -10.24424 -10.24319 -10.24182 -10.23920
 Alpha  occ. eigenvalues --  -10.23717 -10.23711 -10.23704 -10.23647 -10.23447
 Alpha  occ. eigenvalues --  -10.23404 -10.23312 -10.23250 -10.23201 -10.23163
 Alpha  occ. eigenvalues --  -10.23130 -10.23002 -10.22826 -10.22816 -10.22756
 Alpha  occ. eigenvalues --  -10.22634  -3.14928  -3.14104  -1.87754  -1.87308
 Alpha  occ. eigenvalues --   -1.87153  -1.86953  -1.86492  -1.86313  -1.09464
 Alpha  occ. eigenvalues --   -1.08954  -1.06684  -1.05808  -1.04572  -1.03834
 Alpha  occ. eigenvalues --   -1.02130  -1.00892  -1.00490  -0.99606  -0.99471
 Alpha  occ. eigenvalues --   -0.99349  -0.98664  -0.97832  -0.96252  -0.95919
 Alpha  occ. eigenvalues --   -0.86446  -0.85700  -0.84025  -0.83539  -0.83236
 Alpha  occ. eigenvalues --   -0.82988  -0.82795  -0.82287  -0.81963  -0.81768
 Alpha  occ. eigenvalues --   -0.81661  -0.81183  -0.80700  -0.79722  -0.78652
 Alpha  occ. eigenvalues --   -0.78407  -0.77684  -0.77383  -0.76751  -0.76320
 Alpha  occ. eigenvalues --   -0.76319  -0.76037  -0.75312  -0.75259  -0.74885
 Alpha  occ. eigenvalues --   -0.74709  -0.73158  -0.72925  -0.71530  -0.71450
 Alpha  occ. eigenvalues --   -0.71271  -0.71065  -0.70509  -0.70161  -0.69732
 Alpha  occ. eigenvalues --   -0.69201  -0.67359  -0.66699  -0.65832  -0.65528
 Alpha  occ. eigenvalues --   -0.63713  -0.63509  -0.63278  -0.63208  -0.62425
 Alpha  occ. eigenvalues --   -0.62392  -0.61683  -0.61109  -0.60478  -0.60065
 Alpha  occ. eigenvalues --   -0.59596  -0.59418  -0.59258  -0.59066  -0.58841
 Alpha  occ. eigenvalues --   -0.58818  -0.56193  -0.55878  -0.55633  -0.54833
 Alpha  occ. eigenvalues --   -0.54683  -0.53998  -0.53653  -0.53647  -0.52646
 Alpha  occ. eigenvalues --   -0.52557  -0.52522  -0.52195  -0.51823  -0.51789
 Alpha  occ. eigenvalues --   -0.51045  -0.50891  -0.50324  -0.50140  -0.50115
 Alpha  occ. eigenvalues --   -0.49861  -0.48873  -0.48557  -0.48499  -0.48436
 Alpha  occ. eigenvalues --   -0.48261  -0.47932  -0.47879  -0.47779  -0.47427
 Alpha  occ. eigenvalues --   -0.47357  -0.47101  -0.46993  -0.46956  -0.46651
 Alpha  occ. eigenvalues --   -0.46395  -0.46351  -0.46235  -0.46040  -0.45965
 Alpha  occ. eigenvalues --   -0.45395  -0.45217  -0.44945  -0.44915  -0.44623
 Alpha  occ. eigenvalues --   -0.44531  -0.44439  -0.44381  -0.44282  -0.44152
 Alpha  occ. eigenvalues --   -0.44024  -0.43843  -0.43725  -0.43533  -0.43528
 Alpha  occ. eigenvalues --   -0.43380  -0.43187  -0.43043  -0.42995  -0.42756
 Alpha  occ. eigenvalues --   -0.42486  -0.42361  -0.42296  -0.42224  -0.42132
 Alpha  occ. eigenvalues --   -0.42106  -0.41708  -0.41343  -0.41129  -0.40975
 Alpha  occ. eigenvalues --   -0.40941  -0.40821  -0.40593  -0.40372  -0.40260
 Alpha  occ. eigenvalues --   -0.40226  -0.39799  -0.39667  -0.39614  -0.39461
 Alpha  occ. eigenvalues --   -0.39384  -0.39126  -0.39062  -0.39038  -0.38873
 Alpha  occ. eigenvalues --   -0.38825  -0.38793  -0.38544  -0.38297  -0.38257
 Alpha  occ. eigenvalues --   -0.38223  -0.38174  -0.37942  -0.37825  -0.37658
 Alpha  occ. eigenvalues --   -0.37578  -0.37302  -0.37146  -0.36881  -0.36728
 Alpha  occ. eigenvalues --   -0.36718  -0.36227  -0.36117  -0.35976  -0.35907
 Alpha  occ. eigenvalues --   -0.35490  -0.35426  -0.35294  -0.35272  -0.35101
 Alpha  occ. eigenvalues --   -0.34872  -0.34838  -0.34768  -0.34296  -0.33523
 Alpha  occ. eigenvalues --   -0.33286  -0.32777  -0.32650  -0.32488  -0.32213
 Alpha  occ. eigenvalues --   -0.32057  -0.31773  -0.31542  -0.31179  -0.31114
 Alpha  occ. eigenvalues --   -0.30800  -0.30690  -0.29354  -0.29142  -0.28790
 Alpha  occ. eigenvalues --   -0.28762  -0.28344  -0.27705  -0.27237  -0.26675
 Alpha  occ. eigenvalues --   -0.26566  -0.26125  -0.26014  -0.25920  -0.25841
 Alpha  occ. eigenvalues --   -0.25740  -0.25493  -0.25179  -0.20839  -0.20523
 Alpha  occ. eigenvalues --   -0.19116  -0.18511
 Alpha virt. eigenvalues --   -0.11422  -0.10748  -0.05233  -0.04050  -0.04021
 Alpha virt. eigenvalues --   -0.03315  -0.02254  -0.01795  -0.00470  -0.00052
 Alpha virt. eigenvalues --    0.00184   0.00471   0.01012   0.01034   0.01549

 Mulliken charges:
               1
     1  Mg  12.000000
     2  C    6.000000
     3  C    6.000000
     4  C    6.000000
     5  C    6.000000
     6  N    7.000000
     7  C    6.000000
     8  C    6.000000
     9  C    6.000000
    10  C    6.000000
    11  C    6.000000
    12  C    6.000000
    13  C    6.000000
    14  H    1.000000
    15  N    7.000000
    16  C    6.000000
    17  C    6.000000
    18  C    6.000000
    19  C    6.000000
    20  C    6.000000
    21  C    6.000000
    22  O    8.000000
    23  C    6.000000
    24  N    7.000000
    25  C    6.000000
    26  C    6.000000
    27  C    6.000000
    28  C    6.000000
    29  C    6.000000
    30  C    6.000000
    31  C    6.000000
    32  N    7.000000
    33  C    6.000000
    34  C    6.000000
    35  C    6.000000
    36  C    6.000000
    37  C    6.000000
    38  C    6.000000
    39  O    8.000000
    40  C    6.000000
    41  C    6.000000
    42  O    8.000000
    43  O    8.000000
    44  C    6.000000
    45  H    1.000000
    46  H    1.000000
    47  H    1.000000
    48  H    1.000000
    49  H    1.000000
    50  H    1.000000
    51  H    1.000000
    52  H    1.000000
    53  H    1.000000
    54  H    1.000000
    55  H    1.000000
    56  H    1.000000
    57  H    1.000000
    58  H    1.000000
    59  H    1.000000
    60  H    1.000000
    61  H    1.000000
    62  H    1.000000
    63  H    1.000000
    64  H    1.000000
    65  H    1.000000
    66  H    1.000000
    67  H    1.000000
    68  H    1.000000
    69  H    1.000000
    70  H    1.000000
    71  H    1.000000
    72  H    1.000000
    73  H    1.000000
    74  H    1.000000
    75  H    1.000000
    76  H    1.000000
    77  H    1.000000
    78  H    1.000000
    79  H    1.000000
    80  Mg  12.000000
    81  C    6.000000
    82  C    6.000000
    83  C    6.000000
    84  C    6.000000
    85  N    7.000000
    86  C    6.000000
    87  C    6.000000
    88  C    6.000000
    89  C    6.000000
    90  C    6.000000
    91  C    6.000000
    92  C    6.000000
    93  H    1.000000
    94  N    7.000000
    95  C    6.000000
    96  C    6.000000
    97  C    6.000000
    98  C    6.000000
    99  C    6.000000
   100  C    6.000000
   101  O    8.000000
   102  C    6.000000
   103  N    7.000000
   104  C    6.000000
   105  C    6.000000
   106  C    6.000000
   107  C    6.000000
   108  C    6.000000
   109  C    6.000000
   110  C    6.000000
   111  N    7.000000
   112  C    6.000000
   113  C    6.000000
   114  C    6.000000
   115  C    6.000000
   116  C    6.000000
   117  C    6.000000
   118  O    8.000000
   119  C    6.000000
   120  C    6.000000
   121  O    8.000000
   122  O    8.000000
   123  C    6.000000
   124  H    1.000000
   125  H    1.000000
   126  H    1.000000
   127  H    1.000000
   128  H    1.000000
   129  H    1.000000
   130  H    1.000000
   131  H    1.000000
   132  H    1.000000
   133  H    1.000000
   134  H    1.000000
   135  H    1.000000
   136  H    1.000000
   137  H    1.000000
   138  H    1.000000
   139  H    1.000000
   140  H    1.000000
   141  H    1.000000
   142  H    1.000000
   143  H    1.000000
   144  H    1.000000
   145  H    1.000000
   146  H    1.000000
   147  H    1.000000
   148  H    1.000000
   149  H    1.000000
   150  H    1.000000
   151  H    1.000000
   152  H    1.000000
   153  H    1.000000
   154  H    1.000000
   155  H    1.000000
   156  H    1.000000
   157  H    1.000000
   158  H    1.000000
 Sum of Mulliken charges = 624.00000

 Dipole moment (field-independent basis, Debye):
    X=             -0.0000    Y=              0.0000    Z=             -0.0000  Tot=              0.0000
 Quadrupole moment (field-independent basis, Debye-Ang):
   XX=             -0.0000   YY=             -0.0000   ZZ=             -0.0000
   XY=             -0.0000   XZ=              0.0000   YZ=              0.0000

 Normal termination of Gaussian 16 at Thu Oct 14 11:53:12 2021.
