 Gaussian 16, Revision A.03,
 Gaussian 16:  ES64L-G16RevA.03 25-Dec-2016

 --------------------------------------------------------
 #p PBE1PBE/Def2SVP td=(nstates=5) density=(transition=1)
 --------------------------------------------------------

 --------------------------------
 TDDFT excited states in gaussian
 --------------------------------
 Symbolic Z-matrix:
 Charge =  0 Multiplicity = 1

                         Standard orientation:
 ---------------------------------------------------------------------
 Center     Atomic      Atomic             Coordinates (Angstroms)
 Number     Number       Type             X           Y           Z
 ---------------------------------------------------------------------
      1         12           0      -27.458355   -0.761292    0.041357
      2          6           0      -28.470023    2.531375    0.519157
      3          6           0      -24.765938    0.374967   -1.748243
      4          6           0      -26.699241   -4.008392   -0.661719
      5          6           0      -30.450228   -1.707460    1.710724
      6          7           0      -26.726232    1.211890   -0.574194
      7          6           0      -27.254102    2.401061   -0.145233
      8          6           0      -26.328172    3.500724   -0.670956
      9          6           0      -25.362561    2.809614   -1.617124
     10          6           0      -25.615009    1.349786   -1.257759
     11          6           0      -25.433889    3.085681   -3.095023
     12          6           0      -25.626919    4.406874    0.449483
     13          6           0      -24.517269    5.382600   -0.058735
     14          1           0      -24.925054    6.823347   -0.463736
     15          7           0      -25.859971   -1.661510   -0.929004
     16          6           0      -24.877899   -1.035403   -1.624036
     17          6           0      -24.057692   -2.068926   -2.200368
     18          6           0      -24.630560   -3.335899   -1.884438
     19          6           0      -25.784645   -3.056089   -1.154955
     20          6           0      -22.839024   -1.714369   -2.995298
     21          6           0      -24.150354   -4.721143   -2.407088
     22          8           0      -24.872657   -5.701590   -2.383214
     23          6           0      -22.871996   -4.933056   -3.066456
     24          7           0      -28.392419   -2.475565    0.453821
     25          6           0      -27.887818   -3.730033    0.112620
     26          6           0      -28.770614   -4.880267    0.627250
     27          6           0      -29.750937   -4.120890    1.584601
     28          6           0      -29.475733   -2.662897    1.255382
     29          6           0      -29.293579   -5.815363   -0.383200
     30          6           0      -29.722771   -4.447460    3.179181
     31          6           0      -30.976162   -4.964627    3.891500
     32          7           0      -29.217752    0.213024    0.922985
     33          6           0      -30.317917   -0.326202    1.528548
     34          6           0      -31.208117    0.689784    1.979642
     35          6           0      -30.471354    1.894698    1.663694
     36          6           0      -29.303222    1.527830    0.938408
     37          6           0      -32.480321    0.429819    2.692370
     38          6           0      -30.469819    3.328595    1.841319
     39          8           0      -31.192691    4.108595    2.429677
     40          6           0      -29.109835    3.802810    1.056867
     41          6           0      -29.391161    4.895714    0.091352
     42          8           0      -30.061714    4.754647   -0.907741
     43          8           0      -28.807535    6.055336    0.441349
     44          6           0      -28.805895    7.166946   -0.585529
     45          1           0      -23.877436    0.732108   -2.273620
     46          1           0      -26.436815   -5.039460   -0.906951
     47          1           0      -31.288489   -2.196028    2.212164
     48          1           0      -27.052772    4.109779   -1.211249
     49          1           0      -24.343233    3.104311   -1.368927
     50          1           0      -25.874961    2.145276   -3.424037
     51          1           0      -24.460836    3.321692   -3.526040
     52          1           0      -26.175124    3.846417   -3.340816
     53          1           0      -25.190972    3.648142    1.099733
     54          1           0      -26.380730    4.987776    0.979609
     55          1           0      -24.025415    5.001800   -0.952938
     56          1           0      -23.753164    5.449378    0.715712
     57          1           0      -22.545990   -0.665564   -3.051978
     58          1           0      -23.074963   -1.982913   -4.024483
     59          1           0      -21.966955   -2.312829   -2.731038
     60          1           0      -22.555235   -4.268621   -3.869720
     61          1           0      -22.691939   -5.946189   -3.425721
     62          1           0      -22.175459   -4.854921   -2.231954
     63          1           0      -28.011897   -5.379886    1.230223
     64          1           0      -30.690218   -4.362848    1.087559
     65          1           0      -28.953010   -6.849449   -0.323974
     66          1           0      -29.014814   -5.426072   -1.362756
     67          1           0      -30.377166   -5.931143   -0.363809
     68          1           0      -29.439137   -3.529030    3.692773
     69          1           0      -28.974577   -5.157654    3.533261
     70          1           0      -31.499336   -4.223635    4.496480
     71          1           0      -30.845651   -5.907800    4.421300
     72          1           0      -31.722561   -5.168085    3.123527
     73          1           0      -33.012396   -0.364458    2.169340
     74          1           0      -33.086264    1.327458    2.812615
     75          1           0      -32.230582   -0.089457    3.618178
     76          1           0      -28.468116    4.228512    1.827599
     77          1           0      -28.635011    8.046041    0.035424
     78          1           0      -29.774247    7.180543   -1.085333
     79          1           0      -27.948560    6.989245   -1.234925
     80         12           0       28.358027    0.548581    0.319539
     81          6           0       25.175087    0.856127   -1.164671
     82          6           0       26.782820    0.153242    3.314467
     83          6           0       31.342800   -0.497780    1.614803
     84          6           0       29.657853    0.470441   -2.997743
     85          7           0       26.173352    0.367560    0.980027
     86          6           0       25.042102    0.669130    0.277333
     87          6           0       23.764994    0.452497    1.107361
     88          6           0       24.439542    0.614633    2.556919
     89          6           0       25.899751    0.365236    2.271992
     90          6           0       24.225344    1.986943    3.250037
     91          6           0       23.098797   -0.986462    0.937193
     92          6           0       21.616536   -1.150726    1.235566
     93          1           0       21.106797   -1.946695    2.455863
     94          7           0       29.077073   -0.080088    2.246023
     95          6           0       28.267769   -0.025094    3.343393
     96          6           0       28.999781   -0.210161    4.517457
     97          6           0       30.367037   -0.381936    4.080098
     98          6           0       30.341954   -0.361583    2.590163
     99          6           0       28.417574   -0.189897    5.925659
    100          6           0       31.512886   -0.570936    5.048280
    101          8           0       31.286124   -0.572431    6.285733
    102          6           0       33.017314   -0.658665    4.610418
    103          7           0       30.166797    0.084808   -0.598519
    104          6           0       31.293146   -0.300581    0.177772
    105          6           0       32.541585   -0.221985   -0.656206
    106          6           0       32.032431   -0.263035   -2.113374
    107          6           0       30.555427    0.195733   -1.937761
    108          6           0       33.473219    1.004898   -0.532899
    109          6           0       32.078568   -1.754936   -2.739623
    110          6           0       33.384384   -2.249013   -3.343756
    111          7           0       27.573871    0.830791   -1.665410
    112          6           0       28.216854    0.781615   -2.893162
    113          6           0       27.327066    0.919274   -3.941826
    114          6           0       26.074325    1.011818   -3.311519
    115          6           0       26.284454    0.927155   -1.924814
    116          6           0       27.698439    0.949529   -5.390846
    117          6           0       24.745732    1.248976   -3.528365
    118          8           0       24.160178    1.551782   -4.549262
    119          6           0       24.086336    0.900363   -2.177407
    120          6           0       23.383131   -0.402294   -2.416923
    121          8           0       23.925441   -1.394947   -2.791907
    122          8           0       22.010092   -0.253891   -2.213004
    123          6           0       21.280242   -1.414339   -2.589372
    124          1           0       26.342920    0.229078    4.311297
    125          1           0       32.358186   -0.628975    1.995779
    126          1           0       30.145411    0.576455   -3.968853
    127          1           0       23.065802    1.283566    1.021103
    128          1           0       23.964373   -0.126044    3.199525
    129          1           0       23.397438    1.779542    3.928599
    130          1           0       23.909539    2.759625    2.549188
    131          1           0       25.097942    2.283180    3.832433
    132          1           0       23.569613   -1.704338    1.608890
    133          1           0       23.355187   -1.326166   -0.066520
    134          1           0       21.217756   -1.609010    0.329390
    135          1           0       21.188212   -0.150103    1.291563
    136          1           0       28.998130    0.236543    6.744397
    137          1           0       28.206546   -1.255191    6.016062
    138          1           0       27.535817    0.450326    5.953316
    139          1           0       33.310878    0.276320    4.133982
    140          1           0       33.012637   -1.521594    3.944798
    141          1           0       33.726418   -0.955885    5.382917
    142          1           0       33.092193   -1.142969   -0.467345
    143          1           0       32.592562    0.406113   -2.766618
    144          1           0       33.516270    1.644609   -1.414210
    145          1           0       34.367675    0.767553    0.043425
    146          1           0       32.956899    1.648843    0.178856
    147          1           0       31.302643   -1.659505   -3.498917
    148          1           0       31.772973   -2.495184   -1.999958
    149          1           0       33.640696   -3.211155   -2.901084
    150          1           0       34.174902   -1.530112   -3.126653
    151          1           0       33.285515   -2.423697   -4.415429
    152          1           0       27.035262    0.238905   -5.883261
    153          1           0       28.710992    0.587518   -5.573368
    154          1           0       27.549127    1.928398   -5.846826
    155          1           0       23.366432    1.683728   -1.942903
    156          1           0       20.953756   -1.320778   -3.624751
    157          1           0       20.320543   -1.508383   -2.079780
    158          1           0       21.867004   -2.325700   -2.487788
 ---------------------------------------------------------------------

 SCF Done:  E(RPBE1PBE) =  -4067.35755322     A.U. after   16 cycles

 Excitation energies and oscillator strengths:

 Excited State   1:      Singlet-A      1.7754 eV  698.36 nm  f=0.0000  <S**2>=0.000
     312 -> 313        0.70711
 This state for optimization and/or second-order correction.
 Total Energy, E(TD-HF/TD-DFT) =  -4067.29231003
 Copying the excited state density for this state as the 1-particle RhoCI density.

 Excited State   2:      Singlet-A      1.8570 eV  667.67 nm  f=0.3836  <S**2>=0.000
     310 -> 316       -0.17272
     312 -> 314        0.69243
     312 <- 314       -0.11161

 Excited State   3:      Singlet-A      1.8621 eV  665.84 nm  f=0.3853  <S**2>=0.000
     309 -> 315       -0.18165
     311 -> 313        0.68804
     311 <- 313       -0.10541

 Excited State   4:      Singlet-A      2.1541 eV  575.57 nm  f=0.1181  <S**2>=0.000
     309 -> 313        0.65689
     311 -> 315        0.24322

 Excited State   5:      Singlet-A      2.2261 eV  556.96 nm  f=0.0000  <S**2>=0.000
     311 -> 314        0.70711

 The electronic state is 1-A.
 Alpha  occ. eigenvalues --  -46.93716 -46.91265 -19.26038 -19.25061 -19.21105
 Alpha  occ. eigenvalues --  -19.19276 -19.18925 -19.18475 -19.18380 -19.18181
 Alpha  occ. eigenvalues --  -14.42524 -14.42360 -14.42218 -14.41545 -14.39465
 Alpha  occ. eigenvalues --  -14.38857 -14.38728 -14.38102 -10.36703 -10.34952
 Alpha  occ. eigenvalues --  -10.32691 -10.32250 -10.31810 -10.30482 -10.30132
 Alpha  occ. eigenvalues --  -10.30121 -10.29474 -10.29358 -10.29329 -10.28929
 Alpha  occ. eigenvalues --  -10.28848 -10.28559 -10.28381 -10.28225 -10.28091
 Alpha  occ. eigenvalues --  -10.27943 -10.27710 -10.27443 -10.27322 -10.27130
 Alpha  occ. eigenvalues --  -10.27073 -10.26738 -10.26610 -10.26237 -10.25990
 Alpha  occ. eigenvalues --  -10.25990 -10.25941 -10.25861 -10.25853 -10.25803
 Alpha  occ. eigenvalues --  -10.25757 -10.25720 -10.25684 -10.25629 -10.25520
 Alpha  occ. eigenvalues --  -10.25483 -10.25333 -10.25327 -10.25275 -10.25236
 Alpha  occ. eigenvalues --  -10.25130 -10.25037 -10.25013 -10.24951 -10.24915
 Alpha  occ. eigenvalues --  -10.24766 -10.24723 -10.24711 -10.24669 -10.24512
 Alpha  occ. eigenvalues --  -10.24506 -10.24354 -10.24193 -10.24080 -10.24011
 Alpha  occ. eigenvalues --  -10.23693 -10.23684 -10.23575 -10.23414 -10.23306
 Alpha  occ. eigenvalues --  -10.23200 -10.23124 -10.23038 -10.23030 -10.22951
 Alpha  occ. eigenvalues --  -10.21896  -3.15595  -3.13503  -1.88433  -1.87962
 Alpha  occ. eigenvalues --   -1.87813  -1.86361  -1.85880  -1.85728  -1.12383
 Alpha  occ. eigenvalues --   -1.10612  -1.05694  -1.04848  -1.04315  -1.04274
 Alpha  occ. eigenvalues --   -1.02079  -1.01550  -1.00355  -0.99856  -0.99367
 Alpha  occ. eigenvalues --   -0.98800  -0.98620  -0.97947  -0.97000  -0.96546
 Alpha  occ. eigenvalues --   -0.88741  -0.86802  -0.83480  -0.83246  -0.83046
 Alpha  occ. eigenvalues --   -0.83024  -0.83008  -0.82647  -0.81950  -0.81882
 Alpha  occ. eigenvalues --   -0.81444  -0.81255  -0.80996  -0.80239  -0.78904
 Alpha  occ. eigenvalues --   -0.78673  -0.77995  -0.77939  -0.77192  -0.76795
 Alpha  occ. eigenvalues --   -0.76709  -0.76176  -0.75714  -0.75097  -0.75032
 Alpha  occ. eigenvalues --   -0.74606  -0.73128  -0.72416  -0.72118  -0.71723
 Alpha  occ. eigenvalues --   -0.71573  -0.71239  -0.70298  -0.70205  -0.70068
 Alpha  occ. eigenvalues --   -0.69522  -0.68091  -0.67237  -0.66715  -0.66271
 Alpha  occ. eigenvalues --   -0.63935  -0.63679  -0.63270  -0.62935  -0.62815
 Alpha  occ. eigenvalues --   -0.62722  -0.61665  -0.61348  -0.60704  -0.60094
 Alpha  occ. eigenvalues --   -0.59912  -0.59817  -0.59306  -0.59112  -0.58792
 Alpha  occ. eigenvalues --   -0.58756  -0.57377  -0.56003  -0.55069  -0.55045
 Alpha  occ. eigenvalues --   -0.54743  -0.54285  -0.54162  -0.53797  -0.53592
 Alpha  occ. eigenvalues --   -0.53575  -0.53447  -0.52733  -0.52573  -0.51694
 Alpha  occ. eigenvalues --   -0.51147  -0.50973  -0.50328  -0.50210  -0.49879
 Alpha  occ. eigenvalues --   -0.49762  -0.49682  -0.49356  -0.49083  -0.48467
 Alpha  occ. eigenvalues --   -0.48402  -0.48180  -0.47830  -0.47790  -0.47365
 Alpha  occ. eigenvalues --   -0.47358  -0.47244  -0.47134  -0.46905  -0.46735
 Alpha  occ. eigenvalues --   -0.46705  -0.46447  -0.46074  -0.45878  -0.45805
 Alpha  occ. eigenvalues --   -0.45610  -0.45497  -0.45434  -0.45170  -0.45070
 Alpha  occ. eigenvalues --   -0.44810  -0.44737  -0.44560  -0.44498  -0.44360
 Alpha  occ. eigenvalues --   -0.44055  -0.44007  -0.43939  -0.43695  -0.43658
 Alpha  occ. eigenvalues --   -0.43600  -0.43567  -0.43222  -0.43117  -0.42859
 Alpha  occ. eigenvalues --   -0.42670  -0.42413  -0.42142  -0.42041  -0.41909
 Alpha  occ. eigenvalues --   -0.41806  -0.41722  -0.41586  -0.41346  -0.41302
 Alpha  occ. eigenvalues --   -0.41218  -0.41149  -0.41105  -0.40979  -0.40811
 Alpha  occ. eigenvalues --   -0.40789  -0.40564  -0.40082  -0.39907  -0.39863
 Alpha  occ. eigenvalues --   -0.39831  -0.39575  -0.39521  -0.39428  -0.39239
 Alpha  occ. eigenvalues --   -0.39050  -0.38869  -0.38678  -0.38648  -0.38525
 Alpha  occ. eigenvalues --   -0.38181  -0.38073  -0.38023  -0.37801  -0.37672
 Alpha  occ. eigenvalues --   -0.37547  -0.37436  -0.37317  -0.37105  -0.36772
 Alpha  occ. eigenvalues --   -0.36644  -0.36422  -0.36330  -0.36225  -0.36140
 Alpha  occ. eigenvalues --   -0.36026  -0.35860  -0.35815  -0.35402  -0.35293
 Alpha  occ. eigenvalues --   -0.35235  -0.35087  -0.34461  -0.34382  -0.34210
 Alpha  occ. eigenvalues --   -0.33756  -0.33507  -0.32844  -0.32731  -0.32650
 Alpha  occ. eigenvalues --   -0.32302  -0.32102  -0.31932  -0.31920  -0.31627
 Alpha  occ. eigenvalues --   -0.31344  -0.30990  -0.30409  -0.30273  -0.29486
 Alpha  occ. eigenvalues --   -0.29253  -0.29034  -0.27884  -0.27104  -0.26614
 Alpha  occ. eigenvalues --   -0.26061  -0.25718  -0.25360  -0.25346  -0.25255
 Alpha  occ. eigenvalues --   -0.25197  -0.24677  -0.24641  -0.21328  -0.21119
 Alpha  occ. eigenvalues --   -0.19649  -0.18772
 Alpha virt. eigenvalues --   -0.12010  -0.11231  -0.06002  -0.05372  -0.04293
 Alpha virt. eigenvalues --   -0.03592  -0.01880  -0.01721  -0.01415   0.00084
 Alpha virt. eigenvalues --    0.00558   0.00732   0.00809   0.01227   0.01346

 Mulliken charges:
               1
     1  Mg  12.000000
     2  C    6.000000
     3  C    6.000000
     4  C    6.000000
     5  C    6.000000
     6  N    7.000000
     7  C    6.000000
     8  C    6.000000
     9  C    6.000000
    10  C    6.000000
    11  C    6.000000
    12  C    6.000000
    13  C    6.000000
    14  H    1.000000
    15  N    7.000000
    16  C    6.000000
    17  C    6.000000
    18  C    6.000000
    19  C    6.000000
    20  C    6.000000
    21  C    6.000000
    22  O    8.000000
    23  C    6.000000
    24  N    7.000000
    25  C    6.000000
    26  C    6.000000
    27  C    6.000000
    28  C    6.000000
    29  C    6.000000
    30  C    6.000000
    31  C    6.000000
    32  N    7.000000
    33  C    6.000000
    34  C    6.000000
    35  C    6.000000
    36  C    6.000000
    37  C    6.000000
    38  C    6.000000
    39  O    8.000000
    40  C    6.000000
    41  C    6.000000
    42  O    8.000000
    43  O    8.000000
    44  C    6.000000
    45  H    1.000000
    46  H    1.000000
    47  H    1.000000
    48  H    1.000000
    49  H    1.000000
    50  H    1.000000
    51  H    1.000000
    52  H    1.000000
    53  H    1.000000
    54  H    1.000000
    55  H    1.000000
    56  H    1.000000
    57  H    1.000000
    58  H    1.000000
    59  H    1.000000
    60  H    1.000000
    61  H    1.000000
    62  H    1.000000
    63  H    1.000000
    64  H    1.000000
    65  H    1.000000
    66  H    1.000000
    67  H    1.000000
    68  H    1.000000
    69  H    1.000000
    70  H    1.000000
    71  H    1.000000
    72  H    1.000000
    73  H    1.000000
    74  H    1.000000
    75  H    1.000000
    76  H    1.000000
    77  H    1.000000
    78  H    1.000000
    79  H    1.000000
    80  Mg  12.000000
    81  C    6.000000
    82  C    6.000000
    83  C    6.000000
    84  C    6.000000
    85  N    7.000000
    86  C    6.000000
    87  C    6.000000
    88  C    6.000000
    89  C    6.000000
    90  C    6.000000
    91  C    6.000000
    92  C    6.000000
    93  H    1.000000
    94  N    7.000000
    95  C    6.000000
    96  C    6.000000
    97  C    6.000000
    98  C    6.000000
    99  C    6.000000
   100  C    6.000000
   101  O    8.000000
   102  C    6.000000
   103  N    7.000000
   104  C    6.000000
   105  C    6.000000
   106  C    6.000000
   107  C    6.000000
   108  C    6.000000
   109  C    6.000000
   110  C    6.000000
   111  N    7.000000
   112  C    6.000000
   113  C    6.000000
   114  C    6.000000
   115  C    6.000000
   116  C    6.000000
   117  C    6.000000
   118  O    8.000000
   119  C    6.000000
   120  C    6.000000
   121  O    8.000000
   122  O    8.000000
   123  C    6.000000
   124  H    1.000000
   125  H    1.000000
   126  H    1.000000
   127  H    1.000000
   128  H    1.000000
   129  H    1.000000
   130  H    1.000000
   131  H    1.000000
   132  H    1.000000
   133  H    1.000000
   134  H    1.000000
   135  H    1.000000
   136  H    1.000000
   137  H    1.000000
   138  H    1.000000
   139  H    1.000000
   140  H    1.000000
   141  H    1.000000
   142  H    1.000000
   143  H    1.000000
   144  H    1.000000
   145  H    1.000000
   146  H    1.000000
   147  H    1.000000
   148  H    1.000000
   149  H    1.000000
   150  H    1.000000
   151  H    1.000000
   152  H    1.000000
   153  H    1.000000
   154  H    1.000000
   155  H    1.000000
   156  H    1.000000
   157  H    1.000000
   158  H    1.000000
 Sum of Mulliken charges = 624.00000

 Dipole moment (field-independent basis, Debye):
    X=             -0.0000    Y=              0.0000    Z=             -0.0000  Tot=              0.0000
 Quadrupole moment (field-independent basis, Debye-Ang):
   XX=             -0.0000   YY=             -0.0000   ZZ=             -0.0000
   XY=             -0.0000   XZ=             -0.0000   YZ=             -0.0000

 Normal termination of Gaussian 16 at Fri Oct 15 04:58:15 2021.
