 Gaussian 16, Revision A.03,
 Gaussian 16:  ES64L-G16RevA.03 25-Dec-2016

 --------------------------------------------------------
 #p PBE1PBE/Def2SVP td=(nstates=5) density=(transition=1)
 --------------------------------------------------------

 --------------------------------
 TDDFT excited states in gaussian
 --------------------------------
 Symbolic Z-matrix:
 Charge =  0 Multiplicity = 1

                         Standard orientation:
 ---------------------------------------------------------------------
 Center     Atomic      Atomic             Coordinates (Angstroms)
 Number     Number       Type             X           Y           Z
 ---------------------------------------------------------------------
      1         12           0      -13.666932   -0.474070    0.288694
      2          6           0      -13.632203    2.907972   -0.697958
      3          6           0      -12.244304    0.418802    3.239899
      4          6           0      -13.617050   -3.747908    1.136895
      5          6           0      -14.699567   -1.330471   -2.914239
      6          7           0      -12.932320    1.394280    1.121724
      7          6           0      -13.125968    2.672714    0.591371
      8          6           0      -12.726697    3.698775    1.608895
      9          6           0      -11.865882    2.873316    2.594484
     10          6           0      -12.387125    1.443136    2.299728
     11          6           0      -10.316200    2.915443    2.408750
     12          6           0      -13.908997    4.463272    2.315056
     13          6           0      -13.737171    5.947692    2.376541
     14          1           0      -14.058818    6.622266    3.723196
     15          7           0      -13.126888   -1.462587    1.964386
     16          6           0      -12.629348   -0.908554    3.155623
     17          6           0      -12.442268   -1.920429    4.117425
     18          6           0      -12.852430   -3.207151    3.527138
     19          6           0      -13.228190   -2.848199    2.189415
     20          6           0      -11.794331   -1.746217    5.459868
     21          6           0      -12.826386   -4.699827    4.074977
     22          8           0      -13.242214   -5.614326    3.403801
     23          6           0      -12.373829   -5.005395    5.495678
     24          7           0      -13.995213   -2.290709   -0.787185
     25          6           0      -13.887818   -3.507712   -0.194000
     26          6           0      -14.186452   -4.669268   -1.257939
     27          6           0      -14.829721   -3.875702   -2.478010
     28          6           0      -14.490580   -2.384363   -2.050817
     29          6           0      -12.968799   -5.525735   -1.702801
     30          6           0      -16.370292   -4.116053   -2.663810
     31          6           0      -16.686563   -4.530656   -4.039226
     32          7           0      -14.039726    0.544192   -1.473905
     33          6           0      -14.562787    0.069416   -2.675726
     34          6           0      -14.781851    1.165546   -3.579699
     35          6           0      -14.406637    2.281357   -2.859593
     36          6           0      -14.003033    1.891523   -1.621569
     37          6           0      -15.406340    0.974705   -4.986521
     38          6           0      -14.251872    3.723366   -2.916016
     39          8           0      -14.381128    4.450362   -3.876247
     40          6           0      -13.704834    4.198608   -1.479578
     41          6           0      -12.407755    4.875481   -1.662037
     42          8           0      -11.396688    4.347703   -2.195230
     43          8           0      -12.520329    6.152791   -1.196609
     44          6           0      -11.439267    7.067461   -1.650154
     45          1           0      -11.748982    0.774513    4.145716
     46          1           0      -13.616944   -4.823978    1.321808
     47          1           0      -14.954810   -1.621175   -3.934919
     48          1           0      -12.029333    4.448476    1.233130
     49          1           0      -12.016746    3.147192    3.638816
     50          1           0       -9.939640    3.874227    2.049934
     51          1           0      -10.058799    2.110745    1.719565
     52          1           0       -9.726713    2.633307    3.280733
     53          1           0      -13.986073    4.009418    3.302889
     54          1           0      -14.869171    4.231069    1.853428
     55          1           0      -14.404619    6.266361    1.575722
     56          1           0      -12.690379    6.201197    2.209532
     57          1           0      -12.466510   -1.782961    6.317429
     58          1           0      -11.373761   -0.743533    5.524851
     59          1           0      -10.980504   -2.417408    5.732944
     60          1           0      -12.591343   -6.061496    5.650399
     61          1           0      -12.807182   -4.309286    6.214423
     62          1           0      -11.333133   -4.705587    5.622273
     63          1           0      -14.840579   -5.419505   -0.813384
     64          1           0      -14.284537   -4.142804   -3.384516
     65          1           0      -11.994715   -5.222780   -1.317367
     66          1           0      -12.840926   -5.557646   -2.785091
     67          1           0      -13.166652   -6.544573   -1.368684
     68          1           0      -16.890158   -3.171459   -2.499585
     69          1           0      -16.789693   -4.891109   -2.022663
     70          1           0      -16.811819   -5.613654   -4.054039
     71          1           0      -16.031096   -4.218958   -4.851665
     72          1           0      -17.607366   -4.043024   -4.359475
     73          1           0      -15.890567   -0.001236   -5.028148
     74          1           0      -14.684791    1.186054   -5.777025
     75          1           0      -16.204267    1.715428   -5.023364
     76          1           0      -14.406761    4.869930   -0.984230
     77          1           0      -11.663651    8.092669   -1.356170
     78          1           0      -11.514861    7.071577   -2.737740
     79          1           0      -10.501764    6.653310   -1.278063
     80         12           0       12.910851   -0.638184   -0.544283
     81          6           0       15.474637    1.749113   -0.088550
     82          6           0       10.685037    1.487578    0.639497
     83          6           0       10.772218   -3.279231   -0.192217
     84          6           0       15.622801   -3.137358   -0.817502
     85          7           0       13.122340    1.381427    0.241104
     86          6           0       14.173487    2.215874    0.106661
     87          6           0       13.708799    3.660680    0.375310
     88          6           0       12.229144    3.579576    0.573767
     89          6           0       11.958991    2.045164    0.526275
     90          6           0       11.729237    4.399106    1.833030
     91          6           0       14.144011    4.783181   -0.625161
     92          6           0       13.204320    6.011045   -0.990319
     93          1           0       13.819536    7.417612   -1.028975
     94          7           0       10.916442   -0.792838   -0.097665
     95          6           0       10.150197    0.244920    0.382949
     96          6           0        8.806651   -0.237993    0.530506
     97          6           0        8.770074   -1.673327    0.333124
     98          6           0       10.190639   -1.977651    0.052945
     99          6           0        7.775747    0.709693    0.994053
    100          6           0        7.580027   -2.664384    0.327575
    101          8           0        7.771623   -3.827064    0.186284
    102          6           0        6.176421   -2.158920    0.246627
    103          7           0       13.209248   -2.900991   -0.458477
    104          6           0       12.101032   -3.675038   -0.435662
    105          6           0       12.443305   -5.194009   -0.562387
    106          6           0       13.983774   -5.170264   -0.803004
    107          6           0       14.335744   -3.667162   -0.678080
    108          6           0       12.063853   -6.048253    0.617917
    109          6           0       14.531956   -5.762857   -2.148115
    110          6           0       14.421449   -4.956496   -3.397775
    111          7           0       15.092280   -0.801065   -0.500875
    112          6           0       15.974787   -1.828280   -0.675494
    113          6           0       17.316288   -1.300714   -0.731275
    114          6           0       17.211617    0.097237   -0.506605
    115          6           0       15.834647    0.339217   -0.325993
    116          6           0       18.592985   -2.061630   -0.803555
    117          6           0       17.928917    1.329795   -0.346343
    118          8           0       19.114877    1.629802   -0.422269
    119          6           0       16.835591    2.467542   -0.117145
    120          6           0       17.142737    3.353831    1.078125
    121          8           0       17.155726    2.964073    2.217186
    122          8           0       17.351061    4.652313    0.641076
    123          6           0       17.690521    5.578329    1.722103
    124          1           0        9.854787    2.173066    0.823946
    125          1           0       10.016885   -4.063588   -0.113644
    126          1           0       16.421032   -3.858653   -1.004115
    127          1           0       14.276226    3.837441    1.289041
    128          1           0       11.759068    4.093645   -0.265053
    129          1           0       12.556642    4.982967    2.235947
    130          1           0       11.235572    3.698346    2.506272
    131          1           0       11.029947    5.183215    1.542150
    132          1           0       14.363668    4.286426   -1.570512
    133          1           0       15.093708    5.235989   -0.339103
    134          1           0       12.411410    5.972800   -0.243102
    135          1           0       12.738179    5.823931   -1.957762
    136          1           0        7.116143    0.129634    1.639071
    137          1           0        7.202345    1.009493    0.117680
    138          1           0        8.031184    1.629517    1.520410
    139          1           0        5.898863   -2.083017    1.297148
    140          1           0        5.594359   -2.826355   -0.389588
    141          1           0        6.072172   -1.140939   -0.129449
    142          1           0       12.041413   -5.625552   -1.479315
    143          1           0       14.653068   -5.586458   -0.050710
    144          1           0       11.422150   -5.505591    1.313276
    145          1           0       12.932048   -6.352701    1.203023
    146          1           0       11.535390   -6.904451    0.199423
    147          1           0       14.046022   -6.717006   -2.352285
    148          1           0       15.552842   -6.099641   -1.966510
    149          1           0       13.618115   -4.226759   -3.294760
    150          1           0       14.164688   -5.423242   -4.348994
    151          1           0       15.415737   -4.533916   -3.545859
    152          1           0       18.759859   -2.755781    0.019596
    153          1           0       19.370798   -1.339209   -0.554880
    154          1           0       18.725813   -2.539634   -1.774500
    155          1           0       16.829552    3.057280   -1.034030
    156          1           0       16.735355    6.086011    1.591494
    157          1           0       18.541351    6.128295    1.320643
    158          1           0       17.853584    5.081544    2.678754
 ---------------------------------------------------------------------

 SCF Done:  E(RPBE1PBE) =  -4067.38349561     A.U. after   16 cycles

 Excitation energies and oscillator strengths:

 Excited State   1:      Singlet-A      1.8275 eV  678.43 nm  f=0.0000  <S**2>=0.000
     312 -> 313        0.70710
 This state for optimization and/or second-order correction.
 Total Energy, E(TD-HF/TD-DFT) =  -4067.31633548
 Copying the excited state density for this state as the 1-particle RhoCI density.

 Excited State   2:      Singlet-A      1.8610 eV  666.21 nm  f=0.3782  <S**2>=0.000
     310 -> 315        0.17923
     312 -> 314        0.69098
     312 <- 314       -0.10760

 Excited State   3:      Singlet-A      1.8996 eV  652.70 nm  f=0.3721  <S**2>=0.000
     309 -> 316       -0.17464
     311 -> 313        0.69155
     311 <- 313       -0.10889

 Excited State   4:      Singlet-A      2.0685 eV  599.40 nm  f=0.0000  <S**2>=0.000
     311 -> 314        0.70709

 Excited State   5:      Singlet-A      2.1921 eV  565.59 nm  f=0.0984  <S**2>=0.000
     310 -> 314        0.65371
     312 -> 315       -0.25417

 The electronic state is 1-A.
 Alpha  occ. eigenvalues --  -46.93393 -46.90682 -19.26397 -19.25461 -19.20266
 Alpha  occ. eigenvalues --  -19.20044 -19.19863 -19.19690 -19.19443 -19.18912
 Alpha  occ. eigenvalues --  -14.41754 -14.41566 -14.41247 -14.41133 -14.39134
 Alpha  occ. eigenvalues --  -14.39022 -14.38515 -14.38390 -10.36533 -10.36144
 Alpha  occ. eigenvalues --  -10.33448 -10.32770 -10.32371 -10.31978 -10.29476
 Alpha  occ. eigenvalues --  -10.29287 -10.28949 -10.28880 -10.28549 -10.28527
 Alpha  occ. eigenvalues --  -10.28404 -10.28368 -10.28339 -10.28261 -10.28235
 Alpha  occ. eigenvalues --  -10.28196 -10.27488 -10.27151 -10.27086 -10.27029
 Alpha  occ. eigenvalues --  -10.26793 -10.26488 -10.26357 -10.26263 -10.26217
 Alpha  occ. eigenvalues --  -10.26071 -10.25918 -10.25851 -10.25823 -10.25797
 Alpha  occ. eigenvalues --  -10.25658 -10.25601 -10.25588 -10.25585 -10.25537
 Alpha  occ. eigenvalues --  -10.25511 -10.25498 -10.25454 -10.25396 -10.25296
 Alpha  occ. eigenvalues --  -10.25235 -10.25079 -10.24586 -10.24519 -10.24413
 Alpha  occ. eigenvalues --  -10.24403 -10.24337 -10.24166 -10.24154 -10.24012
 Alpha  occ. eigenvalues --  -10.23987 -10.23978 -10.23834 -10.23782 -10.23773
 Alpha  occ. eigenvalues --  -10.23756 -10.23607 -10.23518 -10.23416 -10.22870
 Alpha  occ. eigenvalues --  -10.22854 -10.22679 -10.22565 -10.22369 -10.22264
 Alpha  occ. eigenvalues --  -10.22156  -3.15286  -3.12984  -1.88096  -1.87667
 Alpha  occ. eigenvalues --   -1.87498  -1.85831  -1.85347  -1.85234  -1.11087
 Alpha  occ. eigenvalues --   -1.10615  -1.07584  -1.06410  -1.05255  -1.04001
 Alpha  occ. eigenvalues --   -1.03404  -1.01216  -0.99591  -0.98828  -0.98186
 Alpha  occ. eigenvalues --   -0.97784  -0.97272  -0.97128  -0.96478  -0.96052
 Alpha  occ. eigenvalues --   -0.87065  -0.85986  -0.83557  -0.83533  -0.83148
 Alpha  occ. eigenvalues --   -0.83003  -0.82550  -0.82369  -0.81694  -0.81444
 Alpha  occ. eigenvalues --   -0.81421  -0.80722  -0.80453  -0.80293  -0.78630
 Alpha  occ. eigenvalues --   -0.78268  -0.78187  -0.77956  -0.77261  -0.76661
 Alpha  occ. eigenvalues --   -0.76287  -0.76240  -0.75574  -0.75166  -0.75079
 Alpha  occ. eigenvalues --   -0.74766  -0.72585  -0.72548  -0.71720  -0.71441
 Alpha  occ. eigenvalues --   -0.71403  -0.71176  -0.70204  -0.70122  -0.69281
 Alpha  occ. eigenvalues --   -0.69025  -0.67431  -0.66803  -0.65876  -0.65468
 Alpha  occ. eigenvalues --   -0.64102  -0.63641  -0.63124  -0.62704  -0.62549
 Alpha  occ. eigenvalues --   -0.62039  -0.61326  -0.60967  -0.60023  -0.59668
 Alpha  occ. eigenvalues --   -0.59488  -0.59160  -0.58776  -0.58673  -0.58644
 Alpha  occ. eigenvalues --   -0.58514  -0.56622  -0.56275  -0.54907  -0.54676
 Alpha  occ. eigenvalues --   -0.54531  -0.54095  -0.53921  -0.53387  -0.52939
 Alpha  occ. eigenvalues --   -0.52796  -0.52557  -0.52484  -0.52172  -0.51943
 Alpha  occ. eigenvalues --   -0.50752  -0.50614  -0.50422  -0.50345  -0.50118
 Alpha  occ. eigenvalues --   -0.49916  -0.49609  -0.49568  -0.49175  -0.48632
 Alpha  occ. eigenvalues --   -0.48475  -0.48161  -0.48121  -0.48061  -0.47746
 Alpha  occ. eigenvalues --   -0.47417  -0.47380  -0.47253  -0.46956  -0.46516
 Alpha  occ. eigenvalues --   -0.46508  -0.46379  -0.45926  -0.45836  -0.45728
 Alpha  occ. eigenvalues --   -0.45540  -0.45497  -0.45371  -0.45175  -0.45064
 Alpha  occ. eigenvalues --   -0.44848  -0.44745  -0.44655  -0.44423  -0.44143
 Alpha  occ. eigenvalues --   -0.44117  -0.44065  -0.43868  -0.43634  -0.43623
 Alpha  occ. eigenvalues --   -0.43435  -0.43387  -0.43237  -0.42929  -0.42733
 Alpha  occ. eigenvalues --   -0.42475  -0.42320  -0.42013  -0.41908  -0.41847
 Alpha  occ. eigenvalues --   -0.41501  -0.41473  -0.41398  -0.41242  -0.40871
 Alpha  occ. eigenvalues --   -0.40775  -0.40638  -0.40586  -0.40503  -0.40284
 Alpha  occ. eigenvalues --   -0.40180  -0.40168  -0.39916  -0.39569  -0.39527
 Alpha  occ. eigenvalues --   -0.39365  -0.39324  -0.39287  -0.39212  -0.39052
 Alpha  occ. eigenvalues --   -0.38870  -0.38507  -0.38393  -0.38339  -0.38230
 Alpha  occ. eigenvalues --   -0.38107  -0.37928  -0.37822  -0.37722  -0.37695
 Alpha  occ. eigenvalues --   -0.37523  -0.37483  -0.37206  -0.37092  -0.36904
 Alpha  occ. eigenvalues --   -0.36839  -0.36794  -0.36730  -0.36428  -0.36180
 Alpha  occ. eigenvalues --   -0.35926  -0.35760  -0.35494  -0.35403  -0.35003
 Alpha  occ. eigenvalues --   -0.34974  -0.34148  -0.34089  -0.33900  -0.33851
 Alpha  occ. eigenvalues --   -0.33415  -0.33060  -0.32911  -0.32903  -0.32846
 Alpha  occ. eigenvalues --   -0.32384  -0.31974  -0.31817  -0.31474  -0.31127
 Alpha  occ. eigenvalues --   -0.30885  -0.30785  -0.29553  -0.29542  -0.29203
 Alpha  occ. eigenvalues --   -0.28811  -0.28678  -0.28659  -0.27008  -0.26534
 Alpha  occ. eigenvalues --   -0.26533  -0.26454  -0.25965  -0.25700  -0.25599
 Alpha  occ. eigenvalues --   -0.25393  -0.25209  -0.25024  -0.20992  -0.20763
 Alpha  occ. eigenvalues --   -0.19186  -0.18689
 Alpha virt. eigenvalues --   -0.11478  -0.11087  -0.05092  -0.04903  -0.03779
 Alpha virt. eigenvalues --   -0.03615  -0.01952  -0.01752  -0.01652  -0.00265
 Alpha virt. eigenvalues --    0.00320   0.00606   0.00961   0.01376   0.01716

 Mulliken charges:
               1
     1  Mg  12.000000
     2  C    6.000000
     3  C    6.000000
     4  C    6.000000
     5  C    6.000000
     6  N    7.000000
     7  C    6.000000
     8  C    6.000000
     9  C    6.000000
    10  C    6.000000
    11  C    6.000000
    12  C    6.000000
    13  C    6.000000
    14  H    1.000000
    15  N    7.000000
    16  C    6.000000
    17  C    6.000000
    18  C    6.000000
    19  C    6.000000
    20  C    6.000000
    21  C    6.000000
    22  O    8.000000
    23  C    6.000000
    24  N    7.000000
    25  C    6.000000
    26  C    6.000000
    27  C    6.000000
    28  C    6.000000
    29  C    6.000000
    30  C    6.000000
    31  C    6.000000
    32  N    7.000000
    33  C    6.000000
    34  C    6.000000
    35  C    6.000000
    36  C    6.000000
    37  C    6.000000
    38  C    6.000000
    39  O    8.000000
    40  C    6.000000
    41  C    6.000000
    42  O    8.000000
    43  O    8.000000
    44  C    6.000000
    45  H    1.000000
    46  H    1.000000
    47  H    1.000000
    48  H    1.000000
    49  H    1.000000
    50  H    1.000000
    51  H    1.000000
    52  H    1.000000
    53  H    1.000000
    54  H    1.000000
    55  H    1.000000
    56  H    1.000000
    57  H    1.000000
    58  H    1.000000
    59  H    1.000000
    60  H    1.000000
    61  H    1.000000
    62  H    1.000000
    63  H    1.000000
    64  H    1.000000
    65  H    1.000000
    66  H    1.000000
    67  H    1.000000
    68  H    1.000000
    69  H    1.000000
    70  H    1.000000
    71  H    1.000000
    72  H    1.000000
    73  H    1.000000
    74  H    1.000000
    75  H    1.000000
    76  H    1.000000
    77  H    1.000000
    78  H    1.000000
    79  H    1.000000
    80  Mg  12.000000
    81  C    6.000000
    82  C    6.000000
    83  C    6.000000
    84  C    6.000000
    85  N    7.000000
    86  C    6.000000
    87  C    6.000000
    88  C    6.000000
    89  C    6.000000
    90  C    6.000000
    91  C    6.000000
    92  C    6.000000
    93  H    1.000000
    94  N    7.000000
    95  C    6.000000
    96  C    6.000000
    97  C    6.000000
    98  C    6.000000
    99  C    6.000000
   100  C    6.000000
   101  O    8.000000
   102  C    6.000000
   103  N    7.000000
   104  C    6.000000
   105  C    6.000000
   106  C    6.000000
   107  C    6.000000
   108  C    6.000000
   109  C    6.000000
   110  C    6.000000
   111  N    7.000000
   112  C    6.000000
   113  C    6.000000
   114  C    6.000000
   115  C    6.000000
   116  C    6.000000
   117  C    6.000000
   118  O    8.000000
   119  C    6.000000
   120  C    6.000000
   121  O    8.000000
   122  O    8.000000
   123  C    6.000000
   124  H    1.000000
   125  H    1.000000
   126  H    1.000000
   127  H    1.000000
   128  H    1.000000
   129  H    1.000000
   130  H    1.000000
   131  H    1.000000
   132  H    1.000000
   133  H    1.000000
   134  H    1.000000
   135  H    1.000000
   136  H    1.000000
   137  H    1.000000
   138  H    1.000000
   139  H    1.000000
   140  H    1.000000
   141  H    1.000000
   142  H    1.000000
   143  H    1.000000
   144  H    1.000000
   145  H    1.000000
   146  H    1.000000
   147  H    1.000000
   148  H    1.000000
   149  H    1.000000
   150  H    1.000000
   151  H    1.000000
   152  H    1.000000
   153  H    1.000000
   154  H    1.000000
   155  H    1.000000
   156  H    1.000000
   157  H    1.000000
   158  H    1.000000
 Sum of Mulliken charges = 624.00000

 Dipole moment (field-independent basis, Debye):
    X=             -0.0000    Y=              0.0000    Z=             -0.0000  Tot=              0.0000
 Quadrupole moment (field-independent basis, Debye-Ang):
   XX=             -0.0000   YY=             -0.0000   ZZ=             -0.0000
   XY=             -0.0000   XZ=              0.0000   YZ=              0.0000

 Normal termination of Gaussian 16 at Thu Oct 14 01:16:30 2021.
