 Gaussian 16, Revision A.03,
 Gaussian 16:  ES64L-G16RevA.03 25-Dec-2016

 --------------------------------------------------------
 #p PBE1PBE/Def2SVP td=(nstates=5) density=(transition=1)
 --------------------------------------------------------

 --------------------------------
 TDDFT excited states in gaussian
 --------------------------------
 Symbolic Z-matrix:
 Charge =  0 Multiplicity = 1

                         Standard orientation:
 ---------------------------------------------------------------------
 Center     Atomic      Atomic             Coordinates (Angstroms)
 Number     Number       Type             X           Y           Z
 ---------------------------------------------------------------------
      1         12           0       16.314430    0.779212    0.027564
      2          6           0       18.460085   -1.832198    0.846170
      3          6           0       13.840394   -1.509717   -0.591155
      4          6           0       14.365260    3.351311   -1.067551
      5          6           0       19.100037    2.939331    0.483203
      6          7           0       16.176497   -1.408548    0.082620
      7          6           0       17.156821   -2.233337    0.567873
      8          6           0       16.565846   -3.645233    0.584843
      9          6           0       15.239234   -3.546037   -0.146959
     10          6           0       15.055527   -2.033294   -0.189798
     11          6           0       15.070536   -4.210070   -1.487140
     12          6           0       16.479487   -4.340209    2.026298
     13          6           0       15.682420   -5.682724    2.089445
     14          1           0       16.453349   -7.013358    1.886601
     15          7           0       14.332992    0.892885   -0.578909
     16          6           0       13.492861   -0.148616   -0.800271
     17          6           0       12.265236    0.411666   -1.302354
     18          6           0       12.430221    1.821040   -1.442548
     19          6           0       13.741961    2.087203   -1.054162
     20          6           0       11.094680   -0.473322   -1.601307
     21          6           0       11.406358    2.811431   -2.069837
     22          8           0       11.740302    3.913076   -2.467869
     23          6           0       10.019484    2.469846   -2.341448
     24          7           0       16.679698    2.724616   -0.224063
     25          6           0       15.717990    3.641143   -0.648123
     26          6           0       16.249942    5.084621   -0.672831
     27          6           0       17.615596    4.929965    0.079022
     28          6           0       17.784548    3.421545    0.156409
     29          6           0       16.187819    5.790128   -1.964072
     30          6           0       17.832516    5.685925    1.504362
     31          6           0       18.961480    6.705530    1.682399
     32          7           0       18.448543    0.615083    0.518135
     33          6           0       19.406263    1.582615    0.638500
     34          6           0       20.664220    1.020868    0.999272
     35          6           0       20.328338   -0.375689    1.176113
     36          6           0       18.975209   -0.564491    0.777914
     37          6           0       21.897546    1.809529    1.225067
     38          6           0       20.851683   -1.640864    1.637693
     39          8           0       21.907136   -1.991117    2.128051
     40          6           0       19.594719   -2.670729    1.415829
     41          6           0       20.008085   -3.879093    0.657683
     42          8           0       20.352243   -3.859498   -0.503739
     43          8           0       19.944437   -4.999147    1.398810
     44          6           0       20.091766   -6.318759    0.672812
     45          1           0       13.032366   -2.229743   -0.738329
     46          1           0       13.721908    4.155890   -1.429295
     47          1           0       19.812326    3.759518    0.596150
     48          1           0       17.314993   -4.166314   -0.011112
     49          1           0       14.461785   -4.019008    0.452500
     50          1           0       15.082674   -3.323575   -2.120492
     51          1           0       14.165082   -4.814226   -1.545954
     52          1           0       15.951481   -4.780278   -1.782711
     53          1           0       15.968005   -3.571976    2.606603
     54          1           0       17.482937   -4.516277    2.412047
     55          1           0       14.905622   -5.725675    1.327035
     56          1           0       15.177796   -5.724651    3.054681
     57          1           0       11.169182   -1.531623   -1.349271
     58          1           0       10.991558   -0.462526   -2.685860
     59          1           0       10.153110   -0.081971   -1.215585
     60          1           0        9.776788    1.540911   -2.856446
     61          1           0        9.432271    3.246987   -2.830493
     62          1           0        9.593799    2.453159   -1.338365
     63          1           0       15.520525    5.514269    0.014337
     64          1           0       18.282569    5.260585   -0.717019
     65          1           0       15.539426    6.664970   -2.019470
     66          1           0       15.847678    5.072762   -2.711384
     67          1           0       17.143876    6.193972   -2.296951
     68          1           0       17.997806    4.915696    2.257465
     69          1           0       16.986304    6.239348    1.913251
     70          1           0       19.824783    6.342125    2.240453
     71          1           0       18.640204    7.690346    2.020357
     72          1           0       19.405077    6.870052    0.700337
     73          1           0       21.999397    2.529962    0.413805
     74          1           0       22.782193    1.183639    1.339271
     75          1           0       21.698455    2.488226    2.055049
     76          1           0       19.322699   -3.010284    2.414708
     77          1           0       20.370633   -6.991280    1.483701
     78          1           0       20.871223   -6.215728   -0.081857
     79          1           0       19.103713   -6.575433    0.290468
     80         12           0      -16.695578    0.559108    0.522418
     81          6           0      -15.190181   -2.161012   -1.297890
     82          6           0      -18.085448   -1.650757    2.605818
     83          6           0      -18.709022    3.029339    1.559120
     84          6           0      -15.541066    2.666980   -2.032623
     85          7           0      -16.675482   -1.615075    0.588268
     86          6           0      -15.860025   -2.522533   -0.109183
     87          6           0      -15.917031   -3.959402    0.536352
     88          6           0      -16.899102   -3.752451    1.728943
     89          6           0      -17.205586   -2.231813    1.682874
     90          6           0      -18.158167   -4.581678    1.740799
     91          6           0      -14.450714   -4.530531    0.927451
     92          6           0      -14.121755   -5.921964    0.372609
     93          1           0      -13.772425   -6.985456    1.479094
     94          7           0      -18.103603    0.702701    1.999829
     95          6           0      -18.560537   -0.301671    2.754570
     96          6           0      -19.597932    0.150696    3.683157
     97          6           0      -19.834452    1.513776    3.291991
     98          6           0      -18.875191    1.815077    2.224227
     99          6           0      -20.207340   -0.715416    4.700360
    100          6           0      -20.986642    2.394405    3.869720
    101          8           0      -21.119128    3.567494    3.563365
    102          6           0      -21.987942    1.875328    4.851723
    103          7           0      -17.042312    2.494601   -0.133395
    104          6           0      -17.856721    3.382091    0.561791
    105          6           0      -17.785867    4.814491   -0.062220
    106          6           0      -16.506308    4.732512   -0.975640
    107          6           0      -16.298170    3.218960   -1.022559
    108          6           0      -19.085022    5.393091   -0.711704
    109          6           0      -15.261941    5.457895   -0.394221
    110          6           0      -14.365341    6.223743   -1.334064
    111          7           0      -15.636661    0.331605   -1.327396
    112          6           0      -15.252742    1.276179   -2.236435
    113          6           0      -14.352647    0.612121   -3.277436
    114          6           0      -14.263104   -0.710990   -2.918146
    115          6           0      -15.115504   -0.849850   -1.769495
    116          6           0      -13.656229    1.389929   -4.370806
    117          6           0      -13.726069   -2.022136   -3.235934
    118          8           0      -12.970274   -2.252974   -4.202882
    119          6           0      -14.408164   -3.102495   -2.202737
    120          6           0      -15.346916   -4.097242   -2.852944
    121          8           0      -16.296419   -3.710118   -3.562474
    122          8           0      -14.912018   -5.415536   -2.710199
    123          6           0      -15.551184   -6.315129   -3.663487
    124          1           0      -18.484049   -2.301440    3.386693
    125          1           0      -19.354841    3.790232    2.001552
    126          1           0      -15.118635    3.403551   -2.719939
    127          1           0      -16.326926   -4.562456   -0.273603
    128          1           0      -16.372463   -4.164515    2.590829
    129          1           0      -18.261882   -5.217865    0.861714
    130          1           0      -18.890753   -3.789237    1.591446
    131          1           0      -18.243470   -5.224479    2.617463
    132          1           0      -14.472335   -4.515513    2.016778
    133          1           0      -13.699144   -3.789039    0.657772
    134          1           0      -13.328612   -5.783370   -0.362112
    135          1           0      -14.993653   -6.311634   -0.154352
    136          1           0      -21.288113   -0.850638    4.728101
    137          1           0      -20.104319   -0.153416    5.627909
    138          1           0      -19.663553   -1.633976    4.922002
    139          1           0      -21.401502    1.581841    5.723213
    140          1           0      -22.399485    0.962207    4.420763
    141          1           0      -22.703269    2.683937    4.996613
    142          1           0      -17.556074    5.452986    0.790821
    143          1           0      -16.700369    5.030663   -2.005684
    144          1           0      -19.854716    4.663889   -0.459870
    145          1           0      -18.999668    5.598879   -1.778311
    146          1           0      -19.448567    6.276696   -0.185670
    147          1           0      -14.758157    4.578359    0.006214
    148          1           0      -15.468327    6.115241    0.450657
    149          1           0      -14.124324    7.151599   -0.815191
    150          1           0      -14.857854    6.499247   -2.267161
    151          1           0      -13.425760    5.671484   -1.364199
    152          1           0      -13.962116    2.430887   -4.267808
    153          1           0      -14.053076    1.054938   -5.328875
    154          1           0      -12.582763    1.208422   -4.321609
    155          1           0      -13.609632   -3.592708   -1.645827
    156          1           0      -14.898599   -6.710778   -4.440514
    157          1           0      -16.425782   -5.892266   -4.158026
    158          1           0      -15.917174   -7.160241   -3.081010
 ---------------------------------------------------------------------

 SCF Done:  E(RPBE1PBE) =  -4067.36882849     A.U. after   16 cycles

 Excitation energies and oscillator strengths:

 Excited State   1:      Singlet-A      1.8514 eV  669.67 nm  f=0.4759  <S**2>=0.000
     309 -> 316        0.16197
     311 -> 313       -0.16334
     312 -> 314        0.67671
     312 <- 314       -0.11099
 This state for optimization and/or second-order correction.
 Total Energy, E(TD-HF/TD-DFT) =  -4067.30079030
 Copying the excited state density for this state as the 1-particle RhoCI density.

 Excited State   2:      Singlet-A      1.8573 eV  667.54 nm  f=0.3156  <S**2>=0.000
     310 -> 315        0.16815
     311 -> 313        0.67353
     312 -> 314        0.16396
     311 <- 313       -0.10862

 Excited State   3:      Singlet-A      1.8729 eV  661.99 nm  f=0.0000  <S**2>=0.000
     312 -> 313        0.70710

 Excited State   4:      Singlet-A      2.0085 eV  617.30 nm  f=0.0000  <S**2>=0.000
     311 -> 314        0.70710

 Excited State   5:      Singlet-A      2.2290 eV  556.23 nm  f=0.0879  <S**2>=0.000
     310 -> 313        0.64386
     311 -> 315       -0.27283

 The electronic state is 1-A.
 Alpha  occ. eigenvalues --  -46.91869 -46.91262 -19.27299 -19.25060 -19.21029
 Alpha  occ. eigenvalues --  -19.20098 -19.19270 -19.18930 -19.18923 -19.18472
 Alpha  occ. eigenvalues --  -14.42215 -14.42126 -14.41542 -14.41293 -14.39329
 Alpha  occ. eigenvalues --  -14.39133 -14.38725 -14.38099 -10.37799 -10.34950
 Alpha  occ. eigenvalues --  -10.33614 -10.32686 -10.32249 -10.31808 -10.29356
 Alpha  occ. eigenvalues --  -10.29347 -10.29327 -10.28959 -10.28926 -10.28860
 Alpha  occ. eigenvalues --  -10.28845 -10.28317 -10.28088 -10.28068 -10.28026
 Alpha  occ. eigenvalues --  -10.27668 -10.27503 -10.27440 -10.27435 -10.27319
 Alpha  occ. eigenvalues --  -10.27129 -10.26782 -10.26736 -10.26538 -10.26458
 Alpha  occ. eigenvalues --  -10.26425 -10.26136 -10.25988 -10.25937 -10.25832
 Alpha  occ. eigenvalues --  -10.25801 -10.25754 -10.25581 -10.25405 -10.25330
 Alpha  occ. eigenvalues --  -10.25324 -10.25265 -10.25172 -10.25128 -10.25010
 Alpha  occ. eigenvalues --  -10.24937 -10.24913 -10.24763 -10.24722 -10.24708
 Alpha  occ. eigenvalues --  -10.24692 -10.24675 -10.24665 -10.24508 -10.24504
 Alpha  occ. eigenvalues --  -10.24347 -10.24207 -10.23692 -10.23590 -10.23581
 Alpha  occ. eigenvalues --  -10.23523 -10.23407 -10.23358 -10.23196 -10.23108
 Alpha  occ. eigenvalues --  -10.23045 -10.23036 -10.23030 -10.22996 -10.22948
 Alpha  occ. eigenvalues --  -10.22902  -3.14095  -3.13500  -1.86917  -1.86453
 Alpha  occ. eigenvalues --   -1.86357  -1.86346  -1.85877  -1.85725  -1.11053
 Alpha  occ. eigenvalues --   -1.10610  -1.05688  -1.05014  -1.04272  -1.03707
 Alpha  occ. eigenvalues --   -1.02699  -1.01548  -0.99854  -0.98797  -0.98633
 Alpha  occ. eigenvalues --   -0.98047  -0.97944  -0.97298  -0.96997  -0.96584
 Alpha  occ. eigenvalues --   -0.86938  -0.86799  -0.83494  -0.83477  -0.83065
 Alpha  occ. eigenvalues --   -0.83022  -0.82644  -0.82440  -0.81879  -0.81686
 Alpha  occ. eigenvalues --   -0.81628  -0.81252  -0.80992  -0.80450  -0.78902
 Alpha  occ. eigenvalues --   -0.78634  -0.77993  -0.77972  -0.77036  -0.76790
 Alpha  occ. eigenvalues --   -0.76706  -0.76221  -0.75711  -0.75556  -0.75095
 Alpha  occ. eigenvalues --   -0.74609  -0.73125  -0.72875  -0.72115  -0.71963
 Alpha  occ. eigenvalues --   -0.71570  -0.71266  -0.70537  -0.70203  -0.69519
 Alpha  occ. eigenvalues --   -0.69198  -0.67234  -0.66909  -0.66268  -0.65506
 Alpha  occ. eigenvalues --   -0.63677  -0.63474  -0.63269  -0.62844  -0.62719
 Alpha  occ. eigenvalues --   -0.62249  -0.61344  -0.61248  -0.60091  -0.59910
 Alpha  occ. eigenvalues --   -0.59807  -0.59534  -0.59468  -0.59110  -0.58950
 Alpha  occ. eigenvalues --   -0.58753  -0.57196  -0.56001  -0.55065  -0.54970
 Alpha  occ. eigenvalues --   -0.54333  -0.54282  -0.53589  -0.53444  -0.53347
 Alpha  occ. eigenvalues --   -0.53189  -0.52954  -0.52570  -0.52008  -0.51692
 Alpha  occ. eigenvalues --   -0.50970  -0.50913  -0.50324  -0.49986  -0.49760
 Alpha  occ. eigenvalues --   -0.49700  -0.49378  -0.49353  -0.49081  -0.48430
 Alpha  occ. eigenvalues --   -0.48400  -0.48217  -0.47786  -0.47759  -0.47361
 Alpha  occ. eigenvalues --   -0.47280  -0.47129  -0.46936  -0.46903  -0.46732
 Alpha  occ. eigenvalues --   -0.46487  -0.46254  -0.46104  -0.45975  -0.45874
 Alpha  occ. eigenvalues --   -0.45770  -0.45608  -0.45432  -0.45369  -0.45066
 Alpha  occ. eigenvalues --   -0.44953  -0.44805  -0.44557  -0.44192  -0.44052
 Alpha  occ. eigenvalues --   -0.44005  -0.43937  -0.43912  -0.43692  -0.43597
 Alpha  occ. eigenvalues --   -0.43455  -0.43351  -0.43219  -0.43037  -0.42855
 Alpha  occ. eigenvalues --   -0.42855  -0.42671  -0.42411  -0.42139  -0.41965
 Alpha  occ. eigenvalues --   -0.41803  -0.41753  -0.41581  -0.41570  -0.41343
 Alpha  occ. eigenvalues --   -0.41232  -0.41215  -0.40976  -0.40865  -0.40786
 Alpha  occ. eigenvalues --   -0.40742  -0.40491  -0.40145  -0.39905  -0.39828
 Alpha  occ. eigenvalues --   -0.39573  -0.39373  -0.39236  -0.39157  -0.39047
 Alpha  occ. eigenvalues --   -0.38946  -0.38915  -0.38867  -0.38659  -0.38523
 Alpha  occ. eigenvalues --   -0.38480  -0.38067  -0.37977  -0.37892  -0.37670
 Alpha  occ. eigenvalues --   -0.37669  -0.37544  -0.37519  -0.36767  -0.36685
 Alpha  occ. eigenvalues --   -0.36642  -0.36634  -0.36327  -0.36137  -0.36058
 Alpha  occ. eigenvalues --   -0.35813  -0.35717  -0.35578  -0.35290  -0.35134
 Alpha  occ. eigenvalues --   -0.35086  -0.34482  -0.34459  -0.34207  -0.34116
 Alpha  occ. eigenvalues --   -0.33754  -0.33355  -0.32871  -0.32729  -0.32524
 Alpha  occ. eigenvalues --   -0.32321  -0.32300  -0.31917  -0.31577  -0.31342
 Alpha  occ. eigenvalues --   -0.31196  -0.30988  -0.29876  -0.29696  -0.29483
 Alpha  occ. eigenvalues --   -0.29250  -0.28600  -0.27881  -0.27144  -0.26612
 Alpha  occ. eigenvalues --   -0.26421  -0.26056  -0.25938  -0.25662  -0.25491
 Alpha  occ. eigenvalues --   -0.25343  -0.25194  -0.24675  -0.21120  -0.21116
 Alpha  occ. eigenvalues --   -0.18769  -0.18509
 Alpha virt. eigenvalues --   -0.11228  -0.10989  -0.05369  -0.04904  -0.04342
 Alpha virt. eigenvalues --   -0.03589  -0.02314  -0.01753  -0.01718  -0.00865
 Alpha virt. eigenvalues --    0.00301   0.00558   0.00807   0.01234   0.01348

 Mulliken charges:
               1
     1  Mg  12.000604
     2  C    6.003900
     3  C    5.996642
     4  C    5.996573
     5  C    6.002182
     6  N    7.001229
     7  C    5.992395
     8  C    6.001579
     9  C    5.998454
    10  C    6.006349
    11  C    5.999745
    12  C    6.001092
    13  C    5.999598
    14  H    1.000213
    15  N    6.999193
    16  C    6.008024
    17  C    6.006631
    18  C    6.001930
    19  C    6.007444
    20  C    5.998855
    21  C    6.002860
    22  O    8.004906
    23  C    5.998286
    24  N    6.999127
    25  C    6.009471
    26  C    5.997969
    27  C    6.003128
    28  C    5.991742
    29  C    5.999476
    30  C    6.000672
    31  C    6.000095
    32  N    7.000564
    33  C    5.992924
    34  C    5.992725
    35  C    5.999369
    36  C    5.993098
    37  C    6.000243
    38  C    5.996083
    39  O    7.992831
    40  C    5.999347
    41  C    5.999192
    42  O    7.998869
    43  O    7.999726
    44  C    6.000209
    45  H    1.002052
    46  H    1.002137
    47  H    0.997342
    48  H    1.000173
    49  H    0.999901
    50  H    0.998988
    51  H    1.000157
    52  H    1.002751
    53  H    0.998569
    54  H    1.001245
    55  H    0.998564
    56  H    0.999470
    57  H    1.004674
    58  H    1.005106
    59  H    1.004731
    60  H    1.001291
    61  H    1.003336
    62  H    1.001766
    63  H    0.999787
    64  H    0.999526
    65  H    1.000395
    66  H    0.999300
    67  H    1.002761
    68  H    1.000660
    69  H    0.997340
    70  H    1.000921
    71  H    0.998682
    72  H    0.999554
    73  H    0.995761
    74  H    0.996831
    75  H    0.995166
    76  H    0.998284
    77  H    0.999135
    78  H    0.999561
    79  H    0.998542
    80  Mg  12.002036
    81  C    6.019396
    82  C    5.985415
    83  C    5.987983
    84  C    6.017117
    85  N    7.005738
    86  C    5.967291
    87  C    6.008656
    88  C    5.988355
    89  C    6.031152
    90  C    5.999092
    91  C    6.004108
    92  C    6.002799
    93  H    0.990554
    94  N    6.996364
    95  C    6.036495
    96  C    6.022142
    97  C    6.010853
    98  C    6.034958
    99  C    5.994384
   100  C    6.011997
   101  O    8.022298
   102  C    5.998351
   103  N    7.000570
   104  C    6.027359
   105  C    5.992725
   106  C    6.008551
   107  C    5.971125
   108  C    6.001709
   109  C    6.001012
   110  C    6.002151
   111  N    6.997507
   112  C    5.962623
   113  C    5.968072
   114  C    5.999820
   115  C    5.970725
   116  C    6.002872
   117  C    5.981472
   118  O    7.972119
   119  C    5.995613
   120  C    5.994177
   121  O    7.996067
   122  O    7.997052
   123  C    6.003121
   124  H    1.008238
   125  H    1.007661
   126  H    0.991622
   127  H    0.999465
   128  H    1.005182
   129  H    1.011432
   130  H    0.994034
   131  H    1.002115
   132  H    0.989930
   133  H    1.004125
   134  H    1.003674
   135  H    0.998412
   136  H    1.021115
   137  H    1.017926
   138  H    1.017262
   139  H    1.005121
   140  H    1.004780
   141  H    1.013160
   142  H    0.999931
   143  H    1.001140
   144  H    0.995090
   145  H    1.010657
   146  H    1.001439
   147  H    1.000650
   148  H    0.989191
   149  H    0.995462
   150  H    0.999106
   151  H    1.003724
   152  H    0.981999
   153  H    0.981246
   154  H    0.982393
   155  H    0.991469
   156  H    0.997128
   157  H    0.996733
   158  H    0.993411
 Sum of Mulliken charges = 624.00000

 Dipole moment (field-independent basis, Debye):
    X=             -9.0717    Y=              1.8033    Z=              7.0721  Tot=             11.6431
 Quadrupole moment (field-independent basis, Debye-Ang):
   XX=            152.5962   YY=             -3.0559   ZZ=              2.9644
   XY=            -25.9186   XZ=           -148.5008   YZ=              0.8897

 Normal termination of Gaussian 16 at Fri Oct 15 05:30:50 2021.
