 Gaussian 16, Revision A.03,
 Gaussian 16:  ES64L-G16RevA.03 25-Dec-2016

 --------------------------------------------------------
 #p PBE1PBE/Def2SVP td=(nstates=5) density=(transition=1)
 --------------------------------------------------------

 --------------------------------
 TDDFT excited states in gaussian
 --------------------------------
 Symbolic Z-matrix:
 Charge =  0 Multiplicity = 1

                         Standard orientation:
 ---------------------------------------------------------------------
 Center     Atomic      Atomic             Coordinates (Angstroms)
 Number     Number       Type             X           Y           Z
 ---------------------------------------------------------------------
      1         12           0      -23.661304    0.610695    0.125448
      2          6           0      -21.148814   -1.508846    1.124825
      3          6           0      -25.809196   -2.216475   -0.105397
      4          6           0      -26.064105    2.458144   -1.372268
      5          6           0      -21.547184    3.212796    0.024429
      6          7           0      -23.483680   -1.617593    0.470888
      7          6           0      -22.322668   -2.224299    0.868780
      8          6           0      -22.542468   -3.716554    1.127243
      9          6           0      -24.008108   -3.910326    0.520025
     10          6           0      -24.472743   -2.504746    0.273814
     11          6           0      -24.067663   -4.866724   -0.727154
     12          6           0      -22.465232   -4.118193    2.670778
     13          6           0      -21.737821   -5.348769    3.156521
     14          1           0      -21.972028   -6.635332    2.447675
     15          7           0      -25.707878    0.217645   -0.604636
     16          6           0      -26.431537   -0.912074   -0.444175
     17          6           0      -27.794273   -0.714361   -0.809295
     18          6           0      -27.913798    0.667669   -1.159076
     19          6           0      -26.499167    1.144397   -1.115599
     20          6           0      -28.717671   -1.889558   -0.792961
     21          6           0      -29.125695    1.412802   -1.692005
     22          8           0      -29.038340    2.525549   -2.220439
     23          6           0      -30.506927    0.787450   -1.606206
     24          7           0      -23.754140    2.557330   -0.733611
     25          6           0      -24.906480    3.127242   -1.174444
     26          6           0      -24.706425    4.619670   -1.432642
     27          6           0      -23.284746    4.877332   -0.803186
     28          6           0      -22.825773    3.470847   -0.472576
     29          6           0      -24.908054    5.228203   -2.851877
     30          6           0      -23.213477    5.905075    0.402249
     31          6           0      -23.311713    5.417820    1.832381
     32          7           0      -21.741719    0.829712    0.389594
     33          6           0      -20.971253    1.961864    0.470171
     34          6           0      -19.611052    1.697765    0.769053
     35          6           0      -19.632349    0.343388    1.086980
     36          6           0      -20.950918   -0.129603    0.862829
     37          6           0      -18.377610    2.583744    0.885684
     38          6           0      -18.872383   -0.756179    1.493846
     39          8           0      -17.676696   -0.803532    1.717092
     40          6           0      -19.807760   -2.091181    1.533493
     41          6           0      -19.247414   -3.056942    0.596387
     42          8           0      -19.178643   -2.920507   -0.641207
     43          8           0      -18.729893   -4.159288    1.200420
     44          6           0      -17.862186   -5.051519    0.423399
     45          1           0      -26.392626   -3.137776   -0.055122
     46          1           0      -26.891262    3.138783   -1.583411
     47          1           0      -20.946883    4.062572    0.353838
     48          1           0      -21.737763   -4.270847    0.642535
     49          1           0      -24.672146   -4.399492    1.232875
     50          1           0      -24.733024   -5.692638   -0.477985
     51          1           0      -23.026370   -5.120361   -0.926602
     52          1           0      -24.552571   -4.450907   -1.610886
     53          1           0      -23.523385   -4.214637    2.914538
     54          1           0      -22.211841   -3.255603    3.286178
     55          1           0      -21.870209   -5.458946    4.232804
     56          1           0      -20.684968   -5.161250    2.948832
     57          1           0      -29.621502   -1.524907   -0.306248
     58          1           0      -28.324507   -2.682107   -0.155776
     59          1           0      -28.962539   -2.325150   -1.762272
     60          1           0      -30.712000    0.292390   -0.656556
     61          1           0      -30.709103    0.220061   -2.515699
     62          1           0      -31.185004    1.641083   -1.629424
     63          1           0      -25.532486    5.074025   -0.885152
     64          1           0      -22.608822    5.392174   -1.484916
     65          1           0      -23.948452    5.524358   -3.275373
     66          1           0      -25.522755    6.117841   -2.715834
     67          1           0      -25.406058    4.454568   -3.435293
     68          1           0      -24.020027    6.619707    0.244038
     69          1           0      -22.272698    6.454539    0.361774
     70          1           0      -24.077217    5.955361    2.392479
     71          1           0      -22.373846    5.491953    2.384448
     72          1           0      -23.578902    4.364435    1.747977
     73          1           0      -18.668487    3.621974    0.721248
     74          1           0      -17.634988    2.260348    0.155844
     75          1           0      -17.962500    2.466866    1.886350
     76          1           0      -19.615082   -2.427410    2.552693
     77          1           0      -17.179791   -5.646919    1.030134
     78          1           0      -17.347097   -4.590493   -0.418824
     79          1           0      -18.527464   -5.830957    0.051616
     80         12           0       23.502193    0.684591    0.053847
     81          6           0       22.823835   -2.385312   -1.539181
     82          6           0       23.372202   -1.037623    3.047458
     83          6           0       24.034590    3.604321    1.740950
     84          6           0       23.262658    2.283733   -2.888029
     85          7           0       23.169009   -1.501875    0.684096
     86          6           0       23.045784   -2.618040   -0.134557
     87          6           0       23.179252   -3.889036    0.680011
     88          6           0       22.987420   -3.399289    2.161395
     89          6           0       23.203290   -1.917700    1.949190
     90          6           0       21.622540   -3.802399    2.845398
     91          6           0       24.550625   -4.564010    0.528669
     92          6           0       24.533173   -6.096349    0.528402
     93          1           0       24.186090   -6.833836    1.851549
     94          7           0       23.768182    1.205408    2.085507
     95          6           0       23.626283    0.328081    3.105632
     96          6           0       23.727253    1.042361    4.336692
     97          6           0       24.070263    2.408922    4.050527
     98          6           0       23.913992    2.457289    2.607503
     99          6           0       23.548339    0.369321    5.669205
    100          6           0       24.359142    3.601043    4.963004
    101          8           0       24.805469    4.679880    4.514169
    102          6           0       24.051769    3.585441    6.456103
    103          7           0       23.717611    2.622958   -0.502338
    104          6           0       23.863202    3.706013    0.359286
    105          6           0       23.849942    4.968521   -0.439915
    106          6           0       23.673892    4.620612   -1.961830
    107          6           0       23.585744    3.091701   -1.828223
    108          6           0       22.898833    6.075394    0.106651
    109          6           0       24.831746    5.059656   -2.884200
    110          6           0       24.578586    6.405442   -3.590758
    111          7           0       23.089157    0.150126   -1.804835
    112          6           0       23.075721    0.885095   -2.989469
    113          6           0       22.842269    0.022444   -4.206480
    114          6           0       22.712639   -1.244232   -3.614142
    115          6           0       22.918447   -1.136003   -2.201212
    116          6           0       22.775438    0.483321   -5.651098
    117          6           0       22.470966   -2.636666   -3.960684
    118          8           0       22.236447   -3.170354   -5.045686
    119          6           0       22.663297   -3.433963   -2.601372
    120          6           0       21.400284   -4.306425   -2.462112
    121          8           0       20.262768   -3.976837   -2.727840
    122          8           0       21.791506   -5.604019   -2.137725
    123          6           0       20.661138   -6.520649   -1.987717
    124          1           0       23.403848   -1.624643    3.967502
    125          1           0       24.211830    4.590380    2.174859
    126          1           0       23.078959    2.890155   -3.776999
    127          1           0       22.414833   -4.639321    0.479428
    128          1           0       23.723985   -3.783980    2.866843
    129          1           0       20.986741   -4.473277    2.266942
    130          1           0       20.938010   -2.988998    3.084827
    131          1           0       21.802446   -4.358064    3.765724
    132          1           0       25.237081   -4.247424    1.313603
    133          1           0       25.001713   -4.309339   -0.430582
    134          1           0       25.460967   -6.513619    0.137260
    135          1           0       23.823476   -6.483027   -0.202681
    136          1           0       22.619147   -0.179730    5.516004
    137          1           0       23.386414    1.003623    6.540603
    138          1           0       24.327460   -0.347218    5.928283
    139          1           0       23.032541    3.244825    6.639219
    140          1           0       24.206121    4.629646    6.727581
    141          1           0       24.715360    2.902694    6.986753
    142          1           0       24.792319    5.476099   -0.231793
    143          1           0       22.733497    4.948598   -2.406628
    144          1           0       22.366153    5.660494    0.962620
    145          1           0       22.171082    6.324922   -0.665035
    146          1           0       23.574044    6.880737    0.397742
    147          1           0       25.056573    4.220343   -3.541936
    148          1           0       25.724981    5.289009   -2.302729
    149          1           0       23.861199    6.993394   -3.017910
    150          1           0       24.113345    6.360304   -4.575623
    151          1           0       25.517006    6.960667   -3.599385
    152          1           0       23.791375    0.736734   -5.954517
    153          1           0       22.170810    1.371143   -5.835233
    154          1           0       22.403589   -0.372193   -6.214724
    155          1           0       23.542524   -4.075959   -2.550897
    156          1           0       20.249955   -6.579121   -0.979492
    157          1           0       21.061135   -7.478954   -2.318714
    158          1           0       19.753048   -6.344102   -2.564153
 ---------------------------------------------------------------------

 SCF Done:  E(RPBE1PBE) =  -4067.43142546     A.U. after   16 cycles

 Excitation energies and oscillator strengths:

 Excited State   1:      Singlet-A      1.8492 eV  670.47 nm  f=0.3652  <S**2>=0.000
     309 -> 315       -0.18115
     312 -> 314        0.69137
     312 <- 314       -0.10447
 This state for optimization and/or second-order correction.
 Total Energy, E(TD-HF/TD-DFT) =  -4067.36346861
 Copying the excited state density for this state as the 1-particle RhoCI density.

 Excited State   2:      Singlet-A      1.8776 eV  660.35 nm  f=0.3942  <S**2>=0.000
     310 -> 316        0.17173
     311 -> 313        0.69336
     311 <- 313       -0.11027

 Excited State   3:      Singlet-A      1.8884 eV  656.56 nm  f=0.0000  <S**2>=0.000
     312 -> 313        0.70711

 Excited State   4:      Singlet-A      2.1069 eV  588.46 nm  f=0.0000  <S**2>=0.000
     311 -> 314        0.70711

 Excited State   5:      Singlet-A      2.2058 eV  562.09 nm  f=0.1656  <S**2>=0.000
     310 -> 313        0.67013
     311 -> 316       -0.21435

 The electronic state is 1-A.
 Alpha  occ. eigenvalues --  -46.92505 -46.91060 -19.26393 -19.25693 -19.20601
 Alpha  occ. eigenvalues --  -19.19354 -19.19322 -19.19048 -19.18921 -19.18746
 Alpha  occ. eigenvalues --  -14.42019 -14.41624 -14.41044 -14.40952 -14.39582
 Alpha  occ. eigenvalues --  -14.39179 -14.39152 -14.39055 -10.36693 -10.35916
 Alpha  occ. eigenvalues --  -10.32884 -10.32444 -10.32262 -10.31732 -10.29286
 Alpha  occ. eigenvalues --  -10.28850 -10.28823 -10.28693 -10.28528 -10.28446
 Alpha  occ. eigenvalues --  -10.28355 -10.28212 -10.28199 -10.28182 -10.28148
 Alpha  occ. eigenvalues --  -10.27787 -10.27691 -10.27690 -10.27680 -10.27065
 Alpha  occ. eigenvalues --  -10.27060 -10.26741 -10.26613 -10.26589 -10.26447
 Alpha  occ. eigenvalues --  -10.26385 -10.26294 -10.26165 -10.26141 -10.26122
 Alpha  occ. eigenvalues --  -10.26061 -10.25930 -10.25911 -10.25819 -10.25794
 Alpha  occ. eigenvalues --  -10.25750 -10.25747 -10.25367 -10.25355 -10.25142
 Alpha  occ. eigenvalues --  -10.25139 -10.25102 -10.25026 -10.24966 -10.24490
 Alpha  occ. eigenvalues --  -10.24485 -10.24302 -10.24293 -10.24274 -10.24033
 Alpha  occ. eigenvalues --  -10.24011 -10.23922 -10.23889 -10.23885 -10.23770
 Alpha  occ. eigenvalues --  -10.23727 -10.23596 -10.23551 -10.23493 -10.23404
 Alpha  occ. eigenvalues --  -10.23202 -10.23155 -10.23021 -10.22829 -10.22453
 Alpha  occ. eigenvalues --  -10.22416  -3.14693  -3.13416  -1.87517  -1.87028
 Alpha  occ. eigenvalues --   -1.86966  -1.86257  -1.85768  -1.85685  -1.11034
 Alpha  occ. eigenvalues --   -1.10613  -1.04714  -1.04133  -1.03990  -1.03529
 Alpha  occ. eigenvalues --   -1.02982  -1.00620  -1.00094  -0.99326  -0.99245
 Alpha  occ. eigenvalues --   -0.98781  -0.98228  -0.98131  -0.97798  -0.96085
 Alpha  occ. eigenvalues --   -0.86994  -0.86924  -0.83665  -0.83321  -0.83305
 Alpha  occ. eigenvalues --   -0.82573  -0.82536  -0.82458  -0.82173  -0.81809
 Alpha  occ. eigenvalues --   -0.81694  -0.81207  -0.80738  -0.80486  -0.78629
 Alpha  occ. eigenvalues --   -0.78583  -0.78040  -0.77881  -0.76937  -0.76566
 Alpha  occ. eigenvalues --   -0.76009  -0.75831  -0.75497  -0.75243  -0.74608
 Alpha  occ. eigenvalues --   -0.74377  -0.72686  -0.72669  -0.71803  -0.71779
 Alpha  occ. eigenvalues --   -0.71553  -0.71407  -0.70550  -0.70449  -0.69851
 Alpha  occ. eigenvalues --   -0.69397  -0.68015  -0.67146  -0.66063  -0.65993
 Alpha  occ. eigenvalues --   -0.64022  -0.63697  -0.63652  -0.63249  -0.62631
 Alpha  occ. eigenvalues --   -0.62564  -0.61660  -0.61538  -0.60166  -0.60040
 Alpha  occ. eigenvalues --   -0.59913  -0.59684  -0.59239  -0.58994  -0.58769
 Alpha  occ. eigenvalues --   -0.58760  -0.57136  -0.56846  -0.54884  -0.54726
 Alpha  occ. eigenvalues --   -0.54613  -0.54411  -0.53655  -0.53500  -0.53149
 Alpha  occ. eigenvalues --   -0.52872  -0.52442  -0.52268  -0.52022  -0.51889
 Alpha  occ. eigenvalues --   -0.50852  -0.50611  -0.50000  -0.49867  -0.49716
 Alpha  occ. eigenvalues --   -0.49590  -0.49334  -0.49045  -0.48608  -0.48368
 Alpha  occ. eigenvalues --   -0.48077  -0.47861  -0.47770  -0.47684  -0.47475
 Alpha  occ. eigenvalues --   -0.47236  -0.47141  -0.47125  -0.46760  -0.46681
 Alpha  occ. eigenvalues --   -0.46621  -0.46412  -0.46191  -0.45990  -0.45795
 Alpha  occ. eigenvalues --   -0.45390  -0.45118  -0.45066  -0.44822  -0.44618
 Alpha  occ. eigenvalues --   -0.44562  -0.44468  -0.44389  -0.44153  -0.43988
 Alpha  occ. eigenvalues --   -0.43876  -0.43681  -0.43674  -0.43503  -0.43419
 Alpha  occ. eigenvalues --   -0.43375  -0.43170  -0.43135  -0.42815  -0.42783
 Alpha  occ. eigenvalues --   -0.42699  -0.42530  -0.42181  -0.42137  -0.42093
 Alpha  occ. eigenvalues --   -0.41821  -0.41601  -0.41483  -0.41369  -0.41232
 Alpha  occ. eigenvalues --   -0.41210  -0.40974  -0.40936  -0.40724  -0.40620
 Alpha  occ. eigenvalues --   -0.40614  -0.40239  -0.40100  -0.39762  -0.39720
 Alpha  occ. eigenvalues --   -0.39396  -0.39284  -0.39234  -0.39177  -0.39015
 Alpha  occ. eigenvalues --   -0.38840  -0.38778  -0.38397  -0.38388  -0.38293
 Alpha  occ. eigenvalues --   -0.38205  -0.37973  -0.37948  -0.37915  -0.37741
 Alpha  occ. eigenvalues --   -0.37464  -0.37150  -0.37124  -0.36780  -0.36748
 Alpha  occ. eigenvalues --   -0.36576  -0.36546  -0.36397  -0.36366  -0.36187
 Alpha  occ. eigenvalues --   -0.36060  -0.36005  -0.35877  -0.35469  -0.35439
 Alpha  occ. eigenvalues --   -0.35167  -0.34963  -0.34753  -0.34652  -0.34479
 Alpha  occ. eigenvalues --   -0.33689  -0.33437  -0.33316  -0.33211  -0.32924
 Alpha  occ. eigenvalues --   -0.32327  -0.32215  -0.31848  -0.31672  -0.31660
 Alpha  occ. eigenvalues --   -0.31116  -0.30579  -0.30339  -0.29846  -0.29746
 Alpha  occ. eigenvalues --   -0.28643  -0.28428  -0.28002  -0.26985  -0.26690
 Alpha  occ. eigenvalues --   -0.26539  -0.26308  -0.26125  -0.26050  -0.25779
 Alpha  occ. eigenvalues --   -0.25555  -0.25519  -0.25397  -0.20846  -0.20828
 Alpha  occ. eigenvalues --   -0.19074  -0.18687
 Alpha virt. eigenvalues --   -0.11466  -0.11049  -0.05235  -0.04783  -0.04217
 Alpha virt. eigenvalues --   -0.03940  -0.02622  -0.01930  -0.00972   0.00158
 Alpha virt. eigenvalues --    0.00315   0.00529   0.01348   0.01663   0.01816

 Mulliken charges:
               1
     1  Mg  12.000005
     2  C    6.000000
     3  C    5.999989
     4  C    6.000086
     5  C    6.000016
     6  N    7.000088
     7  C    5.999954
     8  C    5.999976
     9  C    5.999998
    10  C    5.999956
    11  C    6.000011
    12  C    5.999992
    13  C    6.000006
    14  H    0.999983
    15  N    6.999990
    16  C    5.999959
    17  C    5.999976
    18  C    5.999975
    19  C    5.999926
    20  C    6.000027
    21  C    6.000021
    22  O    7.999972
    23  C    6.000022
    24  N    6.999922
    25  C    5.999949
    26  C    6.000050
    27  C    5.999979
    28  C    6.000050
    29  C    5.999986
    30  C    5.999986
    31  C    5.999995
    32  N    7.000019
    33  C    5.999982
    34  C    6.000071
    35  C    5.999961
    36  C    6.000057
    37  C    6.000000
    38  C    5.999971
    39  O    8.000023
    40  C    6.000038
    41  C    6.000014
    42  O    7.999956
    43  O    8.000003
    44  C    6.000003
    45  H    1.000006
    46  H    0.999999
    47  H    1.000012
    48  H    0.999984
    49  H    1.000015
    50  H    0.999997
    51  H    0.999972
    52  H    0.999989
    53  H    1.000023
    54  H    1.000015
    55  H    1.000027
    56  H    0.999991
    57  H    1.000000
    58  H    0.999991
    59  H    0.999971
    60  H    1.000003
    61  H    0.999976
    62  H    0.999996
    63  H    1.000012
    64  H    0.999992
    65  H    0.999980
    66  H    1.000011
    67  H    0.999995
    68  H    1.000016
    69  H    1.000004
    70  H    1.000030
    71  H    1.000017
    72  H    0.999992
    73  H    1.000016
    74  H    0.999982
    75  H    1.000041
    76  H    1.000023
    77  H    1.000006
    78  H    0.999974
    79  H    0.999996
    80  Mg  11.999531
    81  C    5.982527
    82  C    6.010507
    83  C    6.017703
    84  C    5.990849
    85  N    6.993501
    86  C    6.031542
    87  C    5.990746
    88  C    6.010584
    89  C    5.968041
    90  C    6.002988
    91  C    5.996865
    92  C    5.998625
    93  H    1.009295
    94  N    7.003803
    95  C    5.965078
    96  C    5.975497
    97  C    5.986852
    98  C    5.971498
    99  C    6.002152
   100  C    5.989056
   101  O    7.973349
   102  C    6.003284
   103  N    7.005928
   104  C    5.967454
   105  C    6.008562
   106  C    5.988680
   107  C    6.030614
   108  C    6.001956
   109  C    5.996314
   110  C    6.000043
   111  N    7.000323
   112  C    6.034301
   113  C    6.031824
   114  C    5.999535
   115  C    6.029570
   116  C    6.000607
   117  C    6.016630
   118  O    8.028863
   119  C    6.000084
   120  C    6.006080
   121  O    8.002455
   122  O    8.002167
   123  C    5.997668
   124  H    0.990430
   125  H    0.993779
   126  H    1.009331
   127  H    1.000346
   128  H    0.999134
   129  H    0.986858
   130  H    1.000976
   131  H    0.997771
   132  H    1.011474
   133  H    0.993461
   134  H    1.000427
   135  H    0.996142
   136  H    0.984606
   137  H    0.985060
   138  H    0.979391
   139  H    0.993471
   140  H    0.987381
   141  H    0.992561
   142  H    0.999153
   143  H    1.001340
   144  H    1.004918
   145  H    0.989800
   146  H    0.998669
   147  H    0.994350
   148  H    1.009894
   149  H    1.005914
   150  H    0.998342
   151  H    1.004141
   152  H    1.017899
   153  H    1.017748
   154  H    1.011541
   155  H    1.007846
   156  H    1.007039
   157  H    1.003552
   158  H    1.001727
 Sum of Mulliken charges = 624.00000

 Dipole moment (field-independent basis, Debye):
    X=             -1.1315    Y=             -2.7214    Z=             -9.7707  Tot=             10.2056
 Quadrupole moment (field-independent basis, Debye-Ang):
   XX=            -52.9810   YY=             -0.2053   ZZ=             -3.7416
   XY=            -63.9506   XZ=           -228.2009   YZ=             -6.8077

 Normal termination of Gaussian 16 at Fri Oct 15 19:33:47 2021.
