 Gaussian 16, Revision A.03,
 Gaussian 16:  ES64L-G16RevA.03 25-Dec-2016

 --------------------------------------------------------
 #p PBE1PBE/Def2SVP td=(nstates=5) density=(transition=1)
 --------------------------------------------------------

 --------------------------------
 TDDFT excited states in gaussian
 --------------------------------
 Symbolic Z-matrix:
 Charge =  0 Multiplicity = 1

                         Standard orientation:
 ---------------------------------------------------------------------
 Center     Atomic      Atomic             Coordinates (Angstroms)
 Number     Number       Type             X           Y           Z
 ---------------------------------------------------------------------
      1         12           0      -26.799445   -0.270847   -0.037244
      2          6           0      -23.480639   -0.925082   -0.391237
      3          6           0      -26.707999   -1.918247    3.091046
      4          6           0      -29.653823    1.272681    0.752841
      5          6           0      -26.670552    1.845908   -2.960489
      6          7           0      -25.276475   -1.292950    1.132131
      7          6           0      -24.022859   -1.458929    0.868279
      8          6           0      -23.314049   -2.474886    1.832930
      9          6           0      -24.465496   -3.002275    2.771121
     10          6           0      -25.620760   -2.046349    2.314139
     11          6           0      -24.694196   -4.514356    2.783016
     12          6           0      -22.022650   -1.807171    2.596706
     13          6           0      -21.963016   -0.295295    2.743120
     14          1           0      -21.057395    0.349046    3.792664
     15          7           0      -28.000392   -0.319193    1.695875
     16          6           0      -27.847472   -1.087033    2.825223
     17          6           0      -28.876940   -0.805519    3.728736
     18          6           0      -29.755617    0.162932    3.106261
     19          6           0      -29.131890    0.456119    1.788970
     20          6           0      -29.028540   -1.604449    5.010195
     21          6           0      -31.029943    0.722648    3.764007
     22          8           0      -31.321079    0.314574    4.910791
     23          6           0      -31.922439    1.680868    3.178591
     24          7           0      -27.956596    1.500792   -0.923647
     25          6           0      -29.153165    1.722735   -0.458661
     26          6           0      -29.985344    2.684011   -1.354318
     27          6           0      -29.055230    2.832963   -2.578115
     28          6           0      -27.766152    1.997280   -2.199756
     29          6           0      -31.321395    2.163182   -1.744722
     30          6           0      -28.747790    4.361329   -2.942861
     31          6           0      -29.376513    4.896136   -4.294820
     32          7           0      -25.456450    0.289107   -1.497574
     33          6           0      -25.511977    1.104680   -2.634744
     34          6           0      -24.188479    1.044399   -3.329796
     35          6           0      -23.392295    0.300620   -2.447307
     36          6           0      -24.180727   -0.113007   -1.332777
     37          6           0      -23.778507    1.660002   -4.577624
     38          6           0      -22.077021   -0.122894   -2.289349
     39          8           0      -21.053000   -0.018861   -2.980432
     40          6           0      -22.084384   -1.009727   -1.011866
     41          6           0      -21.559403   -2.413111   -1.397598
     42          8           0      -20.643937   -3.031123   -0.881333
     43          8           0      -22.261896   -2.960546   -2.449319
     44          6           0      -21.836857   -4.277302   -2.938955
     45          1           0      -26.567011   -2.403579    4.058886
     46          1           0      -30.657391    1.683359    0.880283
     47          1           0      -26.696934    2.349032   -3.929202
     48          1           0      -23.059803   -3.342697    1.223769
     49          1           0      -24.312179   -2.714202    3.811589
     50          1           0      -25.674192   -4.739785    2.362884
     51          1           0      -24.682170   -4.925337    3.793161
     52          1           0      -23.936313   -5.111546    2.275908
     53          1           0      -21.198028   -2.230850    2.022988
     54          1           0      -21.905709   -2.087406    3.643776
     55          1           0      -22.999854   -0.030778    2.949081
     56          1           0      -21.738829    0.077559    1.743548
     57          1           0      -29.960883   -2.131605    5.214207
     58          1           0      -28.763656   -0.963647    5.851539
     59          1           0      -28.265143   -2.381908    5.032800
     60          1           0      -32.430555    1.405394    2.254623
     61          1           0      -31.367796    2.552111    2.831609
     62          1           0      -32.638206    2.100837    3.884589
     63          1           0      -30.246022    3.667617   -0.963810
     64          1           0      -29.418117    2.306893   -3.461183
     65          1           0      -32.163503    2.611546   -1.217768
     66          1           0      -31.439566    1.128174   -1.421959
     67          1           0      -31.470562    2.277736   -2.818249
     68          1           0      -27.672913    4.458076   -3.101683
     69          1           0      -29.129804    5.082288   -2.221366
     70          1           0      -29.837531    5.868092   -4.123675
     71          1           0      -30.211368    4.245122   -4.554559
     72          1           0      -28.526016    5.028401   -4.963853
     73          1           0      -24.689945    1.688276   -5.175226
     74          1           0      -23.031894    1.045933   -5.082477
     75          1           0      -23.310907    2.607040   -4.309866
     76          1           0      -21.276330   -0.773009   -0.320070
     77          1           0      -22.158280   -4.376576   -3.975918
     78          1           0      -22.251024   -5.163551   -2.458470
     79          1           0      -20.767776   -4.463000   -2.831499
     80         12           0       25.785142    0.773997    0.503422
     81          6           0       26.469958   -2.665897   -0.319347
     82          6           0       23.402705    0.822750   -1.836966
     83          6           0       25.848885    4.117479    0.722074
     84          6           0       28.620818    0.654991    2.564741
     85          7           0       25.088776   -0.717759   -0.918390
     86          6           0       25.351785   -2.097394   -0.966577
     87          6           0       24.335043   -2.843260   -1.912346
     88          6           0       23.428546   -1.679037   -2.414752
     89          6           0       23.962760   -0.446258   -1.638051
     90          6           0       23.379742   -1.431665   -3.901166
     91          6           0       23.563904   -4.060857   -1.169355
     92          6           0       23.630387   -5.413168   -1.889762
     93          1           0       22.221680   -6.015763   -2.250013
     94          7           0       24.660286    2.262452   -0.336276
     95          6           0       23.730551    2.109330   -1.284609
     96          6           0       23.153229    3.393428   -1.685720
     97          6           0       23.955952    4.360705   -0.987901
     98          6           0       24.895892    3.602234   -0.155844
     99          6           0       22.040638    3.519252   -2.635741
    100          6           0       23.852392    5.901297   -1.217404
    101          8           0       24.503197    6.697497   -0.561614
    102          6           0       22.936922    6.509049   -2.231764
    103          7           0       27.021404    2.122101    1.478472
    104          6           0       26.754566    3.486549    1.514022
    105          6           0       27.747475    4.227314    2.468790
    106          6           0       28.378934    3.046775    3.296991
    107          6           0       27.950350    1.852556    2.444629
    108          6           0       28.737552    5.258309    1.835380
    109          6           0       27.840351    2.928926    4.749133
    110          6           0       28.804557    2.572870    5.852423
    111          7           0       27.293222   -0.666490    0.998971
    112          6           0       28.362920   -0.557167    1.841442
    113          6           0       29.006982   -1.934682    1.991316
    114          6           0       28.269630   -2.789467    1.208127
    115          6           0       27.283303   -1.962023    0.569564
    116          6           0       30.151760   -2.202400    2.941713
    117          6           0       28.102251   -4.144605    0.714078
    118          8           0       28.825465   -5.105833    1.049493
    119          6           0       26.924115   -4.114339   -0.430912
    120          6           0       27.400122   -4.402533   -1.839425
    121          8           0       28.334879   -3.749547   -2.344096
    122          8           0       26.812733   -5.547670   -2.378913
    123          6           0       27.553931   -6.062196   -3.524533
    124          1           0       22.541562    0.884298   -2.505309
    125          1           0       25.756533    5.203723    0.779792
    126          1           0       29.414793    0.667483    3.314965
    127          1           0       24.990130   -3.255422   -2.679613
    128          1           0       22.411031   -2.026076   -2.229764
    129          1           0       24.041044   -2.087365   -4.467752
    130          1           0       23.868753   -0.458611   -3.932550
    131          1           0       22.380008   -1.536696   -4.323670
    132          1           0       22.544219   -3.684604   -1.091885
    133          1           0       23.912283   -4.123280   -0.138759
    134          1           0       24.235744   -6.068696   -1.263724
    135          1           0       24.154969   -5.287404   -2.837778
    136          1           0       22.149518    4.135063   -3.527956
    137          1           0       21.312202    4.139875   -2.115150
    138          1           0       21.477282    2.604845   -2.823013
    139          1           0       21.935119    6.208181   -1.922879
    140          1           0       23.144788    6.006461   -3.176794
    141          1           0       23.150291    7.577127   -2.216991
    142          1           0       27.091078    4.794517    3.128775
    143          1           0       29.468373    3.045455    3.271168
    144          1           0       28.412496    5.335188    0.798069
    145          1           0       29.789612    5.000445    1.953534
    146          1           0       28.556434    6.273359    2.191054
    147          1           0       27.126122    2.125112    4.571678
    148          1           0       27.267465    3.789062    5.096243
    149          1           0       28.545540    3.224493    6.687010
    150          1           0       29.844105    2.780584    5.596816
    151          1           0       28.521177    1.573448    6.183423
    152          1           0       30.406050   -1.252794    3.412196
    153          1           0       31.022252   -2.485919    2.350560
    154          1           0       29.879560   -3.007140    3.624351
    155          1           0       26.127748   -4.789948   -0.118724
    156          1           0       28.066809   -7.008919   -3.360680
    157          1           0       28.284187   -5.363629   -3.933233
    158          1           0       26.818244   -6.220003   -4.312761
 ---------------------------------------------------------------------

 SCF Done:  E(RPBE1PBE) =  -4067.33263847     A.U. after   19 cycles

 Excitation energies and oscillator strengths:

 Excited State   1:      Singlet-A      1.6937 eV  732.03 nm  f=0.0000  <S**2>=0.000
     312 -> 313        0.70711
 This state for optimization and/or second-order correction.
 Total Energy, E(TD-HF/TD-DFT) =  -4067.27039580
 Copying the excited state density for this state as the 1-particle RhoCI density.

 Excited State   2:      Singlet-A      1.8517 eV  669.56 nm  f=0.4307  <S**2>=0.000
     310 -> 316        0.16509
     312 -> 314        0.68954
     312 <- 314       -0.11314

 Excited State   3:      Singlet-A      1.8537 eV  668.85 nm  f=0.3945  <S**2>=0.000
     309 -> 315        0.15728
     311 -> 313        0.69033
     311 <- 313       -0.12120

 Excited State   4:      Singlet-A      2.2239 eV  557.52 nm  f=0.0000  <S**2>=0.000
     311 -> 314        0.70711

 Excited State   5:      Singlet-A      2.2475 eV  551.65 nm  f=0.1094  <S**2>=0.000
     309 -> 313        0.65205
     311 -> 315       -0.24622

 The electronic state is 1-A.
 Alpha  occ. eigenvalues --  -46.93732 -46.91800 -19.27228 -19.25503 -19.20960
 Alpha  occ. eigenvalues --  -19.20332 -19.20026 -19.19038 -19.18865 -19.17881
 Alpha  occ. eigenvalues --  -14.42718 -14.42057 -14.41424 -14.41225 -14.40131
 Alpha  occ. eigenvalues --  -14.39622 -14.39260 -14.39064 -10.37729 -10.36754
 Alpha  occ. eigenvalues --  -10.33543 -10.32184 -10.31669 -10.31611 -10.30570
 Alpha  occ. eigenvalues --  -10.29278 -10.29277 -10.28889 -10.28885 -10.28790
 Alpha  occ. eigenvalues --  -10.28706 -10.28705 -10.28613 -10.28591 -10.28248
 Alpha  occ. eigenvalues --  -10.28000 -10.27958 -10.27856 -10.27599 -10.27431
 Alpha  occ. eigenvalues --  -10.27366 -10.27151 -10.27090 -10.27064 -10.26989
 Alpha  occ. eigenvalues --  -10.26712 -10.26460 -10.26389 -10.26353 -10.26349
 Alpha  occ. eigenvalues --  -10.26322 -10.26181 -10.26068 -10.25873 -10.25762
 Alpha  occ. eigenvalues --  -10.25568 -10.25510 -10.25339 -10.25199 -10.25105
 Alpha  occ. eigenvalues --  -10.25081 -10.25064 -10.24861 -10.24830 -10.24827
 Alpha  occ. eigenvalues --  -10.24817 -10.24782 -10.24623 -10.24608 -10.24416
 Alpha  occ. eigenvalues --  -10.24146 -10.24138 -10.23951 -10.23601 -10.23543
 Alpha  occ. eigenvalues --  -10.23522 -10.23517 -10.23452 -10.23288 -10.23101
 Alpha  occ. eigenvalues --  -10.23098 -10.23046 -10.22976 -10.22928 -10.22834
 Alpha  occ. eigenvalues --  -10.22583  -3.15721  -3.14026  -1.88537  -1.88128
 Alpha  occ. eigenvalues --   -1.87909  -1.86848  -1.86384  -1.86276  -1.10982
 Alpha  occ. eigenvalues --   -1.10873  -1.04949  -1.03635  -1.03618  -1.02629
 Alpha  occ. eigenvalues --   -1.02546  -1.02164  -0.99618  -0.99136  -0.98564
 Alpha  occ. eigenvalues --   -0.98221  -0.97977  -0.97229  -0.97145  -0.96514
 Alpha  occ. eigenvalues --   -0.87257  -0.86868  -0.84051  -0.83752  -0.83426
 Alpha  occ. eigenvalues --   -0.83349  -0.82993  -0.82474  -0.82372  -0.82115
 Alpha  occ. eigenvalues --   -0.81617  -0.81559  -0.80381  -0.79776  -0.79027
 Alpha  occ. eigenvalues --   -0.78563  -0.78446  -0.77904  -0.77244  -0.76966
 Alpha  occ. eigenvalues --   -0.76840  -0.76156  -0.75706  -0.75485  -0.74580
 Alpha  occ. eigenvalues --   -0.74540  -0.72870  -0.72807  -0.71895  -0.71729
 Alpha  occ. eigenvalues --   -0.71278  -0.71195  -0.70670  -0.70468  -0.69734
 Alpha  occ. eigenvalues --   -0.69130  -0.67864  -0.66839  -0.66455  -0.65438
 Alpha  occ. eigenvalues --   -0.63998  -0.63405  -0.63292  -0.62778  -0.62776
 Alpha  occ. eigenvalues --   -0.62175  -0.61399  -0.61179  -0.60437  -0.60170
 Alpha  occ. eigenvalues --   -0.59740  -0.59464  -0.59398  -0.59387  -0.59132
 Alpha  occ. eigenvalues --   -0.58880  -0.57858  -0.57127  -0.55425  -0.54902
 Alpha  occ. eigenvalues --   -0.54604  -0.54263  -0.53605  -0.53277  -0.53187
 Alpha  occ. eigenvalues --   -0.53120  -0.52884  -0.52687  -0.51940  -0.51715
 Alpha  occ. eigenvalues --   -0.51041  -0.50845  -0.50281  -0.50006  -0.49916
 Alpha  occ. eigenvalues --   -0.49632  -0.49311  -0.49308  -0.48986  -0.48442
 Alpha  occ. eigenvalues --   -0.48361  -0.48148  -0.48067  -0.47791  -0.47689
 Alpha  occ. eigenvalues --   -0.47515  -0.47212  -0.47143  -0.46870  -0.46755
 Alpha  occ. eigenvalues --   -0.46418  -0.46186  -0.46122  -0.46033  -0.45908
 Alpha  occ. eigenvalues --   -0.45738  -0.45698  -0.45571  -0.45328  -0.45300
 Alpha  occ. eigenvalues --   -0.44886  -0.44869  -0.44530  -0.44210  -0.44122
 Alpha  occ. eigenvalues --   -0.43935  -0.43897  -0.43843  -0.43688  -0.43452
 Alpha  occ. eigenvalues --   -0.43387  -0.43299  -0.43283  -0.43038  -0.42968
 Alpha  occ. eigenvalues --   -0.42788  -0.42602  -0.42413  -0.42124  -0.41924
 Alpha  occ. eigenvalues --   -0.41895  -0.41686  -0.41574  -0.41502  -0.41395
 Alpha  occ. eigenvalues --   -0.41163  -0.41025  -0.40795  -0.40697  -0.40674
 Alpha  occ. eigenvalues --   -0.40515  -0.40421  -0.40091  -0.40076  -0.39857
 Alpha  occ. eigenvalues --   -0.39608  -0.39347  -0.39303  -0.39173  -0.39088
 Alpha  occ. eigenvalues --   -0.38876  -0.38844  -0.38591  -0.38585  -0.38522
 Alpha  occ. eigenvalues --   -0.38412  -0.37907  -0.37822  -0.37631  -0.37600
 Alpha  occ. eigenvalues --   -0.37499  -0.37447  -0.37217  -0.36872  -0.36770
 Alpha  occ. eigenvalues --   -0.36618  -0.36566  -0.36379  -0.35987  -0.35849
 Alpha  occ. eigenvalues --   -0.35727  -0.35649  -0.35593  -0.35511  -0.35064
 Alpha  occ. eigenvalues --   -0.35013  -0.34769  -0.34412  -0.34050  -0.34040
 Alpha  occ. eigenvalues --   -0.33618  -0.33286  -0.33063  -0.32907  -0.32801
 Alpha  occ. eigenvalues --   -0.32452  -0.32250  -0.31865  -0.31601  -0.31506
 Alpha  occ. eigenvalues --   -0.31328  -0.31125  -0.29806  -0.29805  -0.29654
 Alpha  occ. eigenvalues --   -0.29626  -0.29318  -0.28531  -0.27170  -0.27074
 Alpha  occ. eigenvalues --   -0.26410  -0.26349  -0.25882  -0.25868  -0.25596
 Alpha  occ. eigenvalues --   -0.25424  -0.25073  -0.24861  -0.21828  -0.21051
 Alpha  occ. eigenvalues --   -0.19342  -0.18440
 Alpha virt. eigenvalues --   -0.11962  -0.10920  -0.05454  -0.04835  -0.04271
 Alpha virt. eigenvalues --   -0.04216  -0.02386  -0.02246  -0.02066  -0.01683
 Alpha virt. eigenvalues --   -0.00792   0.00376   0.00458   0.00817   0.01306

 Mulliken charges:
               1
     1  Mg  12.000000
     2  C    6.000000
     3  C    6.000000
     4  C    6.000000
     5  C    6.000000
     6  N    7.000000
     7  C    6.000000
     8  C    6.000000
     9  C    6.000000
    10  C    6.000000
    11  C    6.000000
    12  C    6.000000
    13  C    6.000000
    14  H    1.000000
    15  N    7.000000
    16  C    6.000000
    17  C    6.000000
    18  C    6.000000
    19  C    6.000000
    20  C    6.000000
    21  C    6.000000
    22  O    8.000000
    23  C    6.000000
    24  N    7.000000
    25  C    6.000000
    26  C    6.000000
    27  C    6.000000
    28  C    6.000000
    29  C    6.000000
    30  C    6.000000
    31  C    6.000000
    32  N    7.000000
    33  C    6.000000
    34  C    6.000000
    35  C    6.000000
    36  C    6.000000
    37  C    6.000000
    38  C    6.000000
    39  O    8.000000
    40  C    6.000000
    41  C    6.000000
    42  O    8.000000
    43  O    8.000000
    44  C    6.000000
    45  H    1.000000
    46  H    1.000000
    47  H    1.000000
    48  H    1.000000
    49  H    1.000000
    50  H    1.000000
    51  H    1.000000
    52  H    1.000000
    53  H    1.000000
    54  H    1.000000
    55  H    1.000000
    56  H    1.000000
    57  H    1.000000
    58  H    1.000000
    59  H    1.000000
    60  H    1.000000
    61  H    1.000000
    62  H    1.000000
    63  H    1.000000
    64  H    1.000000
    65  H    1.000000
    66  H    1.000000
    67  H    1.000000
    68  H    1.000000
    69  H    1.000000
    70  H    1.000000
    71  H    1.000000
    72  H    1.000000
    73  H    1.000000
    74  H    1.000000
    75  H    1.000000
    76  H    1.000000
    77  H    1.000000
    78  H    1.000000
    79  H    1.000000
    80  Mg  12.000000
    81  C    6.000000
    82  C    6.000000
    83  C    6.000000
    84  C    6.000000
    85  N    7.000000
    86  C    6.000000
    87  C    6.000000
    88  C    6.000000
    89  C    6.000000
    90  C    6.000000
    91  C    6.000000
    92  C    6.000000
    93  H    1.000000
    94  N    7.000000
    95  C    6.000000
    96  C    6.000000
    97  C    6.000000
    98  C    6.000000
    99  C    6.000000
   100  C    6.000000
   101  O    8.000000
   102  C    6.000000
   103  N    7.000000
   104  C    6.000000
   105  C    6.000000
   106  C    6.000000
   107  C    6.000000
   108  C    6.000000
   109  C    6.000000
   110  C    6.000000
   111  N    7.000000
   112  C    6.000000
   113  C    6.000000
   114  C    6.000000
   115  C    6.000000
   116  C    6.000000
   117  C    6.000000
   118  O    8.000000
   119  C    6.000000
   120  C    6.000000
   121  O    8.000000
   122  O    8.000000
   123  C    6.000000
   124  H    1.000000
   125  H    1.000000
   126  H    1.000000
   127  H    1.000000
   128  H    1.000000
   129  H    1.000000
   130  H    1.000000
   131  H    1.000000
   132  H    1.000000
   133  H    1.000000
   134  H    1.000000
   135  H    1.000000
   136  H    1.000000
   137  H    1.000000
   138  H    1.000000
   139  H    1.000000
   140  H    1.000000
   141  H    1.000000
   142  H    1.000000
   143  H    1.000000
   144  H    1.000000
   145  H    1.000000
   146  H    1.000000
   147  H    1.000000
   148  H    1.000000
   149  H    1.000000
   150  H    1.000000
   151  H    1.000000
   152  H    1.000000
   153  H    1.000000
   154  H    1.000000
   155  H    1.000000
   156  H    1.000000
   157  H    1.000000
   158  H    1.000000
 Sum of Mulliken charges = 624.00000

 Dipole moment (field-independent basis, Debye):
    X=             -0.0000    Y=              0.0000    Z=              0.0000  Tot=              0.0000
 Quadrupole moment (field-independent basis, Debye-Ang):
   XX=              0.0000   YY=             -0.0000   ZZ=              0.0000
   XY=              0.0000   XZ=             -0.0000   YZ=              0.0000

 Normal termination of Gaussian 16 at Thu Oct 14 06:08:59 2021.
