 Gaussian 16, Revision A.03,
 Gaussian 16:  ES64L-G16RevA.03 25-Dec-2016

 --------------------------------------------------------
 #p PBE1PBE/Def2SVP td=(nstates=5) density=(transition=1)
 --------------------------------------------------------

 --------------------------------
 TDDFT excited states in gaussian
 --------------------------------
 Symbolic Z-matrix:
 Charge =  0 Multiplicity = 1

                         Standard orientation:
 ---------------------------------------------------------------------
 Center     Atomic      Atomic             Coordinates (Angstroms)
 Number     Number       Type             X           Y           Z
 ---------------------------------------------------------------------
      1         12           0       20.971374    0.700609   -0.399227
      2          6           0       21.420621   -2.600112    0.472383
      3          6           0       17.764581    0.497065    0.758072
      4          6           0       21.034582    3.987374   -0.073808
      5          6           0       24.304106    0.742337   -1.503149
      6          7           0       19.941243   -0.791537    0.933960
      7          6           0       20.220557   -2.120440    0.937442
      8          6           0       19.120594   -2.943135    1.540495
      9          6           0       17.894087   -2.032365    1.210006
     10          6           0       18.560873   -0.707246    0.871555
     11          6           0       16.979791   -2.621014    0.097546
     12          6           0       19.302912   -3.133355    3.129368
     13          6           0       18.823250   -4.543335    3.711068
     14          1           0       17.733111   -4.282373    4.720788
     15          7           0       19.509000    2.055683    0.068194
     16          6           0       18.286952    1.836292    0.601131
     17          6           0       17.607438    3.097698    0.868163
     18          6           0       18.538525    4.121576    0.598018
     19          6           0       19.767485    3.390848    0.179007
     20          6           0       16.160919    3.127959    1.418563
     21          6           0       18.288881    5.563443    0.942380
     22          8           0       17.222223    5.888933    1.394642
     23          6           0       19.331581    6.689536    0.807152
     24          7           0       22.418830    2.229405   -0.860124
     25          6           0       22.203767    3.446828   -0.624662
     26          6           0       23.394676    4.308232   -0.829660
     27          6           0       24.483448    3.272364   -1.314945
     28          6           0       23.729059    2.017195   -1.230134
     29          6           0       23.083534    5.510805   -1.783509
     30          6           0       25.777580    3.276714   -0.376394
     31          6           0       27.097311    2.657656   -0.959830
     32          7           0       22.544753   -0.620567   -0.595062
     33          6           0       23.799705   -0.477421   -1.158545
     34          6           0       24.462199   -1.749115   -1.247178
     35          6           0       23.519533   -2.655056   -0.646358
     36          6           0       22.451401   -1.909084   -0.186764
     37          6           0       25.807141   -2.044479   -1.828762
     38          6           0       23.291206   -4.025638   -0.342990
     39          8           0       23.932930   -5.073831   -0.489739
     40          6           0       22.016460   -4.023424    0.564226
     41          6           0       21.150701   -5.140714    0.085366
     42          8           0       21.148545   -6.286371    0.557251
     43          8           0       20.407281   -4.724069   -0.984234
     44          6           0       19.586798   -5.865708   -1.477522
     45          1           0       16.693062    0.511100    0.969873
     46          1           0       21.043778    5.064882    0.100068
     47          1           0       25.374501    0.784072   -1.718753
     48          1           0       19.108066   -3.847628    0.933666
     49          1           0       17.253400   -1.967379    2.089591
     50          1           0       15.998293   -2.839712    0.517188
     51          1           0       17.405184   -3.583190   -0.189560
     52          1           0       16.986161   -1.919366   -0.735984
     53          1           0       18.900072   -2.340526    3.759459
     54          1           0       20.355665   -3.058052    3.399752
     55          1           0       19.693136   -4.914632    4.253066
     56          1           0       18.557050   -5.349256    3.027064
     57          1           0       16.043687    3.638218    2.374521
     58          1           0       15.692563    2.145842    1.492204
     59          1           0       15.550214    3.624144    0.665017
     60          1           0       19.634398    6.874394   -0.222975
     61          1           0       20.217792    6.543042    1.425135
     62          1           0       18.873037    7.545079    1.303954
     63          1           0       23.630986    4.648433    0.178480
     64          1           0       24.806576    3.308088   -2.355059
     65          1           0       23.293371    6.420483   -1.221303
     66          1           0       22.051787    5.495345   -2.135197
     67          1           0       23.804562    5.637839   -2.590875
     68          1           0       25.567071    2.745154    0.551871
     69          1           0       25.943935    4.323621   -0.126852
     70          1           0       28.001874    3.256169   -1.064223
     71          1           0       26.938912    2.315406   -1.981597
     72          1           0       27.397060    1.789698   -0.372524
     73          1           0       26.291762   -1.236018   -2.375799
     74          1           0       25.538881   -2.887512   -2.464222
     75          1           0       26.315108   -2.417309   -0.939248
     76          1           0       22.223473   -4.132773    1.629322
     77          1           0       20.239758   -6.606591   -1.937763
     78          1           0       18.959600   -5.597643   -2.327765
     79          1           0       18.999007   -6.235315   -0.637029
     80         12           0      -21.618994    0.316819   -0.349873
     81          6           0      -18.578143   -1.335637   -0.009249
     82          6           0      -23.191218   -2.767951   -0.160188
     83          6           0      -24.574627    1.777259   -0.112058
     84          6           0      -19.978773    3.347037   -0.024317
     85          7           0      -20.986561   -1.776551    0.047781
     86          6           0      -19.684261   -2.231294    0.014373
     87          6           0      -19.590177   -3.728426    0.007372
     88          6           0      -21.066598   -4.139657   -0.424327
     89          6           0      -21.825667   -2.851616   -0.134458
     90          6           0      -21.372436   -4.875314   -1.814422
     91          6           0      -19.044950   -4.386958    1.358325
     92          6           0      -19.375901   -3.667927    2.699931
     93          1           0      -19.755175   -4.599066    3.826312
     94          7           0      -23.615421   -0.384318   -0.042937
     95          6           0      -24.053590   -1.713952   -0.006889
     96          6           0      -25.467440   -1.796968    0.237605
     97          6           0      -25.912561   -0.454187    0.281040
     98          6           0      -24.709036    0.404185    0.069667
     99          6           0      -26.192212   -3.138989    0.123064
    100          6           0      -27.403259   -0.096867    0.479215
    101          8           0      -28.259475   -0.958138    0.704759
    102          6           0      -27.750197    1.324269    0.327096
    103          7           0      -22.129386    2.285720    0.019397
    104          6           0      -23.444238    2.654592   -0.209903
    105          6           0      -23.640505    4.185824   -0.260066
    106          6           0      -22.141218    4.616678    0.013224
    107          6           0      -21.373823    3.370799    0.056828
    108          6           0      -24.215897    4.813668   -1.490179
    109          6           0      -21.958154    5.403170    1.408340
    110          6           0      -21.109064    6.634652    1.229509
    111          7           0      -19.639627    0.962657   -0.264653
    112          6           0      -19.125732    2.239396   -0.132934
    113          6           0      -17.647895    2.182563   -0.058235
    114          6           0      -17.384342    0.769416   -0.009658
    115          6           0      -18.614671    0.113236   -0.132202
    116          6           0      -16.662158    3.242759    0.223116
    117          6           0      -16.376344   -0.297205    0.169294
    118          8           0      -15.194051   -0.202569    0.405118
    119          6           0      -17.097777   -1.682923    0.135303
    120          6           0      -16.518977   -2.531594   -0.906935
    121          8           0      -15.938306   -3.613476   -0.815464
    122          8           0      -16.474455   -1.751674   -2.092244
    123          6           0      -15.969663   -2.450964   -3.293280
    124          1           0      -23.624171   -3.752434   -0.352101
    125          1           0      -25.485834    2.366432   -0.233694
    126          1           0      -19.556356    4.353218   -0.003621
    127          1           0      -18.869676   -4.057456   -0.741357
    128          1           0      -21.310763   -4.846311    0.369246
    129          1           0      -20.500211   -5.160955   -2.402145
    130          1           0      -21.937171   -4.265330   -2.519352
    131          1           0      -21.807566   -5.854550   -1.612888
    132          1           0      -17.974289   -4.575765    1.287203
    133          1           0      -19.463038   -5.393038    1.390688
    134          1           0      -20.162792   -2.926924    2.555877
    135          1           0      -18.500624   -3.121914    3.050788
    136          1           0      -27.063012   -3.226012    0.773629
    137          1           0      -25.533294   -3.931537    0.476774
    138          1           0      -26.511311   -3.213770   -0.916764
    139          1           0      -27.649818    1.593837   -0.723842
    140          1           0      -27.116689    1.929433    0.976350
    141          1           0      -28.795257    1.391445    0.629346
    142          1           0      -24.160518    4.476085    0.653160
    143          1           0      -21.861981    5.093317   -0.926405
    144          1           0      -24.060350    5.886458   -1.374861
    145          1           0      -25.296015    4.675150   -1.442278
    146          1           0      -23.769800    4.379289   -2.385623
    147          1           0      -21.532166    4.686132    2.109997
    148          1           0      -22.866039    5.671437    1.950077
    149          1           0      -20.160423    6.461391    1.737039
    150          1           0      -21.472257    7.478377    1.817237
    151          1           0      -20.869466    6.767891    0.174747
    152          1           0      -17.068418    4.246365    0.357430
    153          1           0      -16.023849    3.295792   -0.658158
    154          1           0      -16.320953    2.932340    1.210494
    155          1           0      -16.929164   -2.100887    1.127487
    156          1           0      -16.695189   -2.148972   -4.049473
    157          1           0      -15.885835   -3.537483   -3.318337
    158          1           0      -15.077836   -1.890892   -3.575079
 ---------------------------------------------------------------------

 SCF Done:  E(RPBE1PBE) =  -4067.36551263     A.U. after   16 cycles

 Excitation energies and oscillator strengths:

 Excited State   1:      Singlet-A      1.7987 eV  689.30 nm  f=0.3508  <S**2>=0.000
     309 -> 316        0.16140
     312 -> 313        0.69478
     312 <- 313       -0.10913
 This state for optimization and/or second-order correction.
 Total Energy, E(TD-HF/TD-DFT) =  -4067.29941198
 Copying the excited state density for this state as the 1-particle RhoCI density.

 Excited State   2:      Singlet-A      1.8711 eV  662.62 nm  f=0.3567  <S**2>=0.000
     310 -> 315        0.17706
     311 -> 314        0.68991
     311 <- 314       -0.10399

 Excited State   3:      Singlet-A      1.9734 eV  628.28 nm  f=0.0000  <S**2>=0.000
     312 -> 314        0.70710

 Excited State   4:      Singlet-A      1.9761 eV  627.43 nm  f=0.0000  <S**2>=0.000
     311 -> 313        0.70711

 Excited State   5:      Singlet-A      2.1989 eV  563.84 nm  f=0.1022  <S**2>=0.000
     309 -> 313        0.65397
     312 -> 316       -0.25084

 The electronic state is 1-A.
 Alpha  occ. eigenvalues --  -46.92554 -46.92497 -19.26267 -19.25018 -19.20761
 Alpha  occ. eigenvalues --  -19.19411 -19.19384 -19.19176 -19.19109 -19.18435
 Alpha  occ. eigenvalues --  -14.41753 -14.41684 -14.41478 -14.41435 -14.39710
 Alpha  occ. eigenvalues --  -14.39246 -14.38888 -14.38416 -10.36740 -10.35802
 Alpha  occ. eigenvalues --  -10.32581 -10.32353 -10.32174 -10.31454 -10.29735
 Alpha  occ. eigenvalues --  -10.29331 -10.28982 -10.28981 -10.28964 -10.28529
 Alpha  occ. eigenvalues --  -10.28279 -10.28267 -10.28253 -10.28160 -10.28081
 Alpha  occ. eigenvalues --  -10.27955 -10.27902 -10.27850 -10.26926 -10.26719
 Alpha  occ. eigenvalues --  -10.26594 -10.26487 -10.26469 -10.26345 -10.26321
 Alpha  occ. eigenvalues --  -10.26294 -10.26129 -10.26116 -10.26068 -10.26036
 Alpha  occ. eigenvalues --  -10.25985 -10.25921 -10.25895 -10.25878 -10.25736
 Alpha  occ. eigenvalues --  -10.25626 -10.25571 -10.25384 -10.25328 -10.25306
 Alpha  occ. eigenvalues --  -10.25192 -10.25103 -10.25051 -10.24952 -10.24853
 Alpha  occ. eigenvalues --  -10.24763 -10.24602 -10.24593 -10.24590 -10.24545
 Alpha  occ. eigenvalues --  -10.24425 -10.24398 -10.24363 -10.24318 -10.23888
 Alpha  occ. eigenvalues --  -10.23810 -10.23735 -10.23731 -10.23697 -10.23624
 Alpha  occ. eigenvalues --  -10.23583 -10.23345 -10.23275 -10.23220 -10.23212
 Alpha  occ. eigenvalues --  -10.22524  -3.14706  -3.14603  -1.87533  -1.87428
 Alpha  occ. eigenvalues --   -1.87095  -1.86993  -1.86921  -1.86818  -1.10785
 Alpha  occ. eigenvalues --   -1.09542  -1.06384  -1.05187  -1.04028  -1.03090
 Alpha  occ. eigenvalues --   -1.01726  -1.01649  -1.01343  -0.99690  -0.99041
 Alpha  occ. eigenvalues --   -0.98506  -0.98360  -0.97846  -0.97665  -0.96966
 Alpha  occ. eigenvalues --   -0.87041  -0.86826  -0.84071  -0.83958  -0.83521
 Alpha  occ. eigenvalues --   -0.82908  -0.82494  -0.82282  -0.81953  -0.81610
 Alpha  occ. eigenvalues --   -0.81251  -0.81171  -0.80769  -0.80436  -0.79039
 Alpha  occ. eigenvalues --   -0.78767  -0.78484  -0.78170  -0.76954  -0.76579
 Alpha  occ. eigenvalues --   -0.76509  -0.75840  -0.75194  -0.75145  -0.74673
 Alpha  occ. eigenvalues --   -0.74501  -0.72798  -0.72691  -0.71932  -0.71783
 Alpha  occ. eigenvalues --   -0.71097  -0.71071  -0.70513  -0.70324  -0.70098
 Alpha  occ. eigenvalues --   -0.69757  -0.67188  -0.67116  -0.66595  -0.66582
 Alpha  occ. eigenvalues --   -0.64876  -0.63750  -0.63667  -0.63616  -0.62586
 Alpha  occ. eigenvalues --   -0.62557  -0.62005  -0.61320  -0.61249  -0.60867
 Alpha  occ. eigenvalues --   -0.59763  -0.59409  -0.59371  -0.59078  -0.59025
 Alpha  occ. eigenvalues --   -0.58550  -0.57076  -0.57043  -0.54904  -0.54797
 Alpha  occ. eigenvalues --   -0.54191  -0.53983  -0.53707  -0.53544  -0.53361
 Alpha  occ. eigenvalues --   -0.52896  -0.52553  -0.52117  -0.51776  -0.51412
 Alpha  occ. eigenvalues --   -0.51257  -0.50894  -0.50752  -0.50364  -0.50271
 Alpha  occ. eigenvalues --   -0.49907  -0.49642  -0.49512  -0.49115  -0.48799
 Alpha  occ. eigenvalues --   -0.48383  -0.48247  -0.47610  -0.47516  -0.47261
 Alpha  occ. eigenvalues --   -0.47123  -0.47028  -0.46773  -0.46724  -0.46493
 Alpha  occ. eigenvalues --   -0.46433  -0.46263  -0.46261  -0.45900  -0.45760
 Alpha  occ. eigenvalues --   -0.45722  -0.45391  -0.45343  -0.45062  -0.44788
 Alpha  occ. eigenvalues --   -0.44775  -0.44735  -0.44479  -0.44301  -0.44211
 Alpha  occ. eigenvalues --   -0.44108  -0.43883  -0.43853  -0.43617  -0.43489
 Alpha  occ. eigenvalues --   -0.43288  -0.43188  -0.42944  -0.42944  -0.42792
 Alpha  occ. eigenvalues --   -0.42406  -0.42402  -0.42341  -0.41992  -0.41900
 Alpha  occ. eigenvalues --   -0.41648  -0.41557  -0.41404  -0.41246  -0.41017
 Alpha  occ. eigenvalues --   -0.40996  -0.40980  -0.40928  -0.40634  -0.40504
 Alpha  occ. eigenvalues --   -0.40464  -0.40151  -0.40034  -0.39891  -0.39807
 Alpha  occ. eigenvalues --   -0.39756  -0.39708  -0.39517  -0.39450  -0.39412
 Alpha  occ. eigenvalues --   -0.39189  -0.39096  -0.38891  -0.38736  -0.38680
 Alpha  occ. eigenvalues --   -0.38295  -0.38278  -0.38010  -0.37954  -0.37837
 Alpha  occ. eigenvalues --   -0.37689  -0.37536  -0.37434  -0.37331  -0.37016
 Alpha  occ. eigenvalues --   -0.37001  -0.36881  -0.36781  -0.36775  -0.36601
 Alpha  occ. eigenvalues --   -0.36523  -0.36218  -0.36096  -0.36096  -0.35726
 Alpha  occ. eigenvalues --   -0.35332  -0.34947  -0.34870  -0.34579  -0.34059
 Alpha  occ. eigenvalues --   -0.33596  -0.33518  -0.33216  -0.32965  -0.32645
 Alpha  occ. eigenvalues --   -0.32443  -0.31956  -0.31888  -0.31780  -0.31603
 Alpha  occ. eigenvalues --   -0.31473  -0.30567  -0.30307  -0.30172  -0.29712
 Alpha  occ. eigenvalues --   -0.29058  -0.28891  -0.28356  -0.26917  -0.26817
 Alpha  occ. eigenvalues --   -0.26260  -0.26078  -0.25889  -0.25752  -0.25533
 Alpha  occ. eigenvalues --   -0.25345  -0.25316  -0.24721  -0.21013  -0.21004
 Alpha  occ. eigenvalues --   -0.18871  -0.18726
 Alpha virt. eigenvalues --   -0.11294  -0.11165  -0.05716  -0.05307  -0.03966
 Alpha virt. eigenvalues --   -0.03535  -0.02247  -0.01959  -0.01113  -0.00778
 Alpha virt. eigenvalues --   -0.00506   0.00270   0.00795   0.01221   0.02016

 Mulliken charges:
               1
     1  Mg  12.000606
     2  C    6.012987
     3  C    5.992631
     4  C    5.984807
     5  C    6.003276
     6  N    7.008334
     7  C    5.965985
     8  C    6.010347
     9  C    5.986193
    10  C    6.031872
    11  C    5.997002
    12  C    5.998918
    13  C    6.002186
    14  H    0.991137
    15  N    6.995357
    16  C    6.035528
    17  C    6.022239
    18  C    6.013479
    19  C    6.029317
    20  C    5.996199
    21  C    6.009333
    22  O    8.018846
    23  C    5.998425
    24  N    7.000631
    25  C    6.029082
    26  C    5.991710
    27  C    6.010084
    28  C    5.965673
    29  C    5.997314
    30  C    6.006305
    31  C    6.001356
    32  N    6.999776
    33  C    5.973115
    34  C    5.968349
    35  C    6.000297
    36  C    5.975411
    37  C    5.999114
    38  C    5.984310
    39  O    7.971006
    40  C    6.001378
    41  C    5.995961
    42  O    7.993214
    43  O    8.000887
    44  C    6.000827
    45  H    1.010281
    46  H    1.006233
    47  H    0.991700
    48  H    1.002858
    49  H    1.005170
    50  H    1.003428
    51  H    1.015019
    52  H    0.999580
    53  H    0.989358
    54  H    1.004975
    55  H    1.002075
    56  H    1.000461
    57  H    1.017276
    58  H    1.017206
    59  H    1.016924
    60  H    1.010572
    61  H    1.010990
    62  H    1.010734
    63  H    0.998028
    64  H    0.998390
    65  H    0.999992
    66  H    0.994140
    67  H    1.008790
    68  H    0.997210
    69  H    0.988162
    70  H    0.994277
    71  H    1.001505
    72  H    1.003521
    73  H    0.982792
    74  H    0.984986
    75  H    0.982980
    76  H    0.991680
    77  H    1.000061
    78  H    0.993711
    79  H    0.994133
    80  Mg  11.999990
    81  C    6.000214
    82  C    5.999875
    83  C    5.999669
    84  C    6.000024
    85  N    7.000020
    86  C    5.999694
    87  C    6.000085
    88  C    5.999888
    89  C    6.000342
    90  C    5.999959
    91  C    6.000017
    92  C    6.000023
    93  H    0.999980
    94  N    6.999952
    95  C    6.000363
    96  C    6.000191
    97  C    6.000142
    98  C    6.000384
    99  C    5.999946
   100  C    6.000130
   101  O    8.000227
   102  C    5.999948
   103  N    7.000002
   104  C    6.000419
   105  C    5.999852
   106  C    6.000091
   107  C    5.999726
   108  C    5.999994
   109  C    6.000036
   110  C    6.000027
   111  N    6.999995
   112  C    5.999727
   113  C    5.999701
   114  C    5.999883
   115  C    5.999777
   116  C    6.000042
   117  C    5.999836
   118  O    7.999625
   119  C    6.000000
   120  C    5.999938
   121  O    7.999906
   122  O    8.000041
   123  C    6.000022
   124  H    1.000164
   125  H    1.000100
   126  H    0.999847
   127  H    1.000001
   128  H    1.000077
   129  H    1.000124
   130  H    1.000011
   131  H    1.000074
   132  H    1.000013
   133  H    0.999967
   134  H    0.999940
   135  H    1.000019
   136  H    1.000176
   137  H    1.000150
   138  H    1.000197
   139  H    1.000095
   140  H    1.000075
   141  H    1.000162
   142  H    1.000033
   143  H    0.999982
   144  H    1.000068
   145  H    0.999986
   146  H    1.000038
   147  H    0.999993
   148  H    0.999914
   149  H    0.999977
   150  H    0.999948
   151  H    0.999978
   152  H    0.999813
   153  H    0.999772
   154  H    0.999808
   155  H    0.999919
   156  H    0.999987
   157  H    0.999972
   158  H    0.999920
 Sum of Mulliken charges = 624.00000

 Dipole moment (field-independent basis, Debye):
    X=             -7.5086    Y=              6.5469    Z=              1.9001  Tot=             10.1416
 Quadrupole moment (field-independent basis, Debye-Ang):
   XX=           -307.0654   YY=              7.2348   ZZ=             -1.7025
   XY=            133.3142   XZ=             41.4399   YZ=              2.1858

 Normal termination of Gaussian 16 at Fri Oct 15 08:31:35 2021.
