 Gaussian 16, Revision A.03,
 Gaussian 16:  ES64L-G16RevA.03 25-Dec-2016

 --------------------------------------------------------
 #p PBE1PBE/Def2SVP td=(nstates=5) density=(transition=1)
 --------------------------------------------------------

 --------------------------------
 TDDFT excited states in gaussian
 --------------------------------
 Symbolic Z-matrix:
 Charge =  0 Multiplicity = 1

                         Standard orientation:
 ---------------------------------------------------------------------
 Center     Atomic      Atomic             Coordinates (Angstroms)
 Number     Number       Type             X           Y           Z
 ---------------------------------------------------------------------
      1         12           0       -8.982568    0.548502    0.094558
      2          6           0       -6.818375   -1.844870    1.338581
      3          6           0       -6.756060    3.052043    1.264074
      4          6           0      -10.753612    2.945371   -1.596768
      5          6           0      -10.885190   -1.886849   -1.447552
      6          7           0       -7.091231    0.550112    1.285847
      7          6           0       -6.345762   -0.569959    1.588307
      8          6           0       -4.910811   -0.248991    2.151812
      9          6           0       -5.067047    1.307694    2.493107
     10          6           0       -6.415414    1.725051    1.680455
     11          6           0       -5.125441    1.764440    4.000547
     12          6           0       -3.786033   -0.512596    1.213571
     13          6           0       -2.706455   -1.520080    1.559505
     14          1           0       -1.319961   -1.259237    0.949299
     15          7           0       -8.831904    2.731486   -0.057025
     16          6           0       -7.849894    3.523217    0.567635
     17          6           0       -8.126738    4.904529    0.331887
     18          6           0       -9.233862    4.895546   -0.660039
     19          6           0       -9.671535    3.476842   -0.841414
     20          6           0       -7.229628    6.053792    0.803175
     21          6           0       -9.757780    6.200223   -1.285184
     22          8           0       -9.343372    7.338621   -1.086590
     23          6           0      -10.635203    6.071310   -2.479679
     24          7           0      -10.550458    0.535051   -1.527591
     25          6           0      -11.193984    1.658327   -1.873665
     26          6           0      -12.086582    1.298975   -3.060627
     27          6           0      -12.245421   -0.292159   -3.010865
     28          6           0      -11.163920   -0.613827   -1.885351
     29          6           0      -13.502579    1.949726   -2.871300
     30          6           0      -12.010875   -1.148979   -4.322118
     31          6           0      -13.159713   -1.914366   -4.961626
     32          7           0       -8.941652   -1.513054    0.016982
     33          6           0       -9.811395   -2.397904   -0.628048
     34          6           0       -9.358905   -3.743613   -0.449047
     35          6           0       -8.163575   -3.611368    0.323137
     36          6           0       -8.014425   -2.197239    0.603589
     37          6           0       -9.966192   -5.008689   -0.968195
     38          6           0       -7.119434   -4.279106    0.984271
     39          8           0       -6.914816   -5.475089    1.042207
     40          6           0       -6.164169   -3.182311    1.595840
     41          6           0       -5.820738   -3.574262    2.971736
     42          8           0       -4.730838   -4.038252    3.287106
     43          8           0       -6.903340   -3.364656    3.812888
     44          6           0       -6.640818   -3.780820    5.208920
     45          1           0       -6.173463    3.907390    1.611281
     46          1           0      -11.314201    3.777691   -2.028330
     47          1           0      -11.473747   -2.638593   -1.977351
     48          1           0       -4.750943   -0.808294    3.072961
     49          1           0       -4.258494    1.819548    1.970004
     50          1           0       -4.808267    0.913887    4.603840
     51          1           0       -6.102860    2.115850    4.331366
     52          1           0       -4.454474    2.617048    4.098386
     53          1           0       -3.241450    0.427919    1.117474
     54          1           0       -4.174319   -0.858425    0.256187
     55          1           0       -3.005617   -2.480739    1.141309
     56          1           0       -2.509316   -1.591857    2.628881
     57          1           0       -6.284499    5.864307    1.311534
     58          1           0       -7.922052    6.648701    1.398258
     59          1           0       -7.142529    6.677826   -0.085688
     60          1           0      -11.714295    5.998690   -2.351036
     61          1           0      -10.290018    5.295281   -3.163019
     62          1           0      -10.537535    7.011955   -3.022940
     63          1           0      -11.667948    1.614728   -4.016486
     64          1           0      -13.193979   -0.560075   -2.546821
     65          1           0      -13.737705    2.464084   -3.803090
     66          1           0      -13.594494    2.639781   -2.031615
     67          1           0      -14.287370    1.220405   -2.669250
     68          1           0      -11.220119   -1.843768   -4.040006
     69          1           0      -11.703324   -0.426003   -5.078917
     70          1           0      -12.683640   -2.715744   -5.527209
     71          1           0      -13.663850   -1.262039   -5.674998
     72          1           0      -13.908249   -2.398896   -4.335599
     73          1           0       -9.325905   -5.815012   -0.609499
     74          1           0      -10.013783   -4.921339   -2.053223
     75          1           0      -10.971110   -5.225073   -0.605230
     76          1           0       -5.257427   -3.272822    0.996785
     77          1           0       -6.922336   -4.824596    5.347729
     78          1           0       -7.166037   -3.061217    5.836909
     79          1           0       -5.592506   -3.656291    5.478785
     80         12           0        9.090294    0.169213   -0.022948
     81          6           0        6.322191   -1.997116    0.377766
     82          6           0        7.365893    2.593178    1.727055
     83          6           0       11.629618    2.316809   -0.672014
     84          6           0       10.712984   -2.248069   -1.975646
     85          7           0        7.039960    0.220935    0.811000
     86          6           0        6.165541   -0.834247    1.060045
     87          6           0        4.933866   -0.369242    1.939909
     88          6           0        5.205524    1.151557    2.087853
     89          6           0        6.600729    1.380961    1.464815
     90          6           0        4.154705    2.155630    1.482254
     91          6           0        4.644923   -1.202252    3.255321
     92          6           0        3.294354   -1.849123    3.317661
     93          1           0        2.607667   -1.886391    4.740181
     94          7           0        9.389551    2.129194    0.464815
     95          6           0        8.617518    2.964242    1.246740
     96          6           0        9.244545    4.274646    1.320061
     97          6           0       10.494004    4.248172    0.638191
     98          6           0       10.573220    2.835874    0.112024
     99          6           0        8.703429    5.444046    2.167036
    100          6           0       11.553772    5.334350    0.484537
    101          8           0       12.627952    5.159523   -0.053001
    102          6           0       11.433215    6.789520    1.097668
    103          7           0       10.889230    0.071892   -1.259026
    104          6           0       11.752214    1.075342   -1.349742
    105          6           0       12.991781    0.707721   -2.241057
    106          6           0       12.779019   -0.836855   -2.496490
    107          6           0       11.376289   -1.050962   -1.851672
    108          6           0       13.115169    1.639451   -3.481260
    109          6           0       13.909183   -1.671836   -1.927745
    110          6           0       14.361875   -2.811387   -2.838910
    111          7           0        8.645690   -1.698018   -0.832327
    112          6           0        9.424109   -2.608617   -1.520822
    113          6           0        8.599258   -3.741191   -1.809624
    114          6           0        7.399941   -3.595809   -1.069200
    115          6           0        7.447276   -2.306597   -0.469145
    116          6           0        8.976041   -4.901896   -2.649970
    117          6           0        6.159751   -4.274923   -0.655160
    118          8           0        5.628954   -5.325978   -1.002196
    119          6           0        5.406278   -3.160212    0.407551
    120          6           0        4.094688   -2.851413   -0.070224
    121          8           0        3.786156   -1.815088   -0.617588
    122          8           0        3.198595   -3.831044    0.293522
    123          6           0        1.832804   -3.580523   -0.230458
    124          1           0        6.911446    3.343565    2.377616
    125          1           0       12.450326    2.979495   -0.952548
    126          1           0       11.324311   -2.973630   -2.517494
    127          1           0        4.092898   -0.388751    1.247569
    128          1           0        5.291481    1.426105    3.139245
    129          1           0        4.056874    2.971578    2.199005
    130          1           0        3.215784    1.622949    1.333331
    131          1           0        4.443718    2.584577    0.522583
    132          1           0        4.806734   -0.512606    4.083873
    133          1           0        5.377803   -2.008843    3.281589
    134          1           0        3.369777   -2.888354    2.994957
    135          1           0        2.707283   -1.276550    2.600157
    136          1           0        9.437903    5.579150    2.960217
    137          1           0        7.803129    5.116896    2.687706
    138          1           0        8.586957    6.395215    1.646117
    139          1           0       11.281211    6.687880    2.172763
    140          1           0       10.772908    7.438112    0.521213
    141          1           0       12.365708    7.277995    0.816503
    142          1           0       13.943038    0.782504   -1.714544
    143          1           0       12.658970   -0.944515   -3.574677
    144          1           0       13.223469    1.015124   -4.368614
    145          1           0       13.906319    2.383677   -3.386663
    146          1           0       12.200371    2.218820   -3.594808
    147          1           0       13.662765   -2.086562   -0.950858
    148          1           0       14.804052   -1.101150   -1.674683
    149          1           0       13.678524   -2.947133   -3.677247
    150          1           0       14.332592   -3.715987   -2.230854
    151          1           0       15.403935   -2.712934   -3.143490
    152          1           0        9.964723   -4.889164   -3.108609
    153          1           0        8.112498   -5.107883   -3.283546
    154          1           0        9.177481   -5.676087   -1.909211
    155          1           0        5.340127   -3.607459    1.399775
    156          1           0        1.857142   -3.535638   -1.319486
    157          1           0        1.482734   -2.675143    0.265296
    158          1           0        1.134948   -4.383967    0.002038
 ---------------------------------------------------------------------

 SCF Done:  E(RPBE1PBE) =  -4067.36181630     A.U. after   17 cycles

 Excitation energies and oscillator strengths:

 Excited State   1:      Singlet-A      1.5948 eV  777.42 nm  f=0.0000  <S**2>=0.000
     312 -> 313        0.70707
 This state for optimization and/or second-order correction.
 Total Energy, E(TD-HF/TD-DFT) =  -4067.30320768
 Copying the excited state density for this state as the 1-particle RhoCI density.

 Excited State   2:      Singlet-A      1.8568 eV  667.73 nm  f=0.1599  <S**2>=0.000
     309 -> 315       -0.16251
     311 -> 313        0.66244
     312 -> 314       -0.20020
     311 <- 313       -0.10190

 Excited State   3:      Singlet-A      1.8752 eV  661.19 nm  f=0.5396  <S**2>=0.000
     310 -> 316        0.16777
     311 -> 313        0.19973
     312 -> 314        0.66092

 Excited State   4:      Singlet-A      2.1543 eV  575.51 nm  f=0.0000  <S**2>=0.000
     310 -> 313        0.70707

 Excited State   5:      Singlet-A      2.1844 eV  567.60 nm  f=0.1651  <S**2>=0.000
     309 -> 313        0.65808
     311 -> 315        0.23328

 The electronic state is 1-A.
 Alpha  occ. eigenvalues --  -46.93901 -46.91582 -19.25871 -19.24760 -19.20197
 Alpha  occ. eigenvalues --  -19.19844 -19.19698 -19.19317 -19.19196 -19.18829
 Alpha  occ. eigenvalues --  -14.43003 -14.41725 -14.41585 -14.41161 -14.39808
 Alpha  occ. eigenvalues --  -14.39671 -14.39668 -14.38569 -10.36254 -10.35139
 Alpha  occ. eigenvalues --  -10.33325 -10.33191 -10.32278 -10.31575 -10.30729
 Alpha  occ. eigenvalues --  -10.29874 -10.29602 -10.29545 -10.29278 -10.29242
 Alpha  occ. eigenvalues --  -10.28813 -10.28802 -10.28634 -10.28247 -10.28244
 Alpha  occ. eigenvalues --  -10.28173 -10.28100 -10.27851 -10.27770 -10.27295
 Alpha  occ. eigenvalues --  -10.27272 -10.27269 -10.27049 -10.26690 -10.26660
 Alpha  occ. eigenvalues --  -10.26605 -10.26512 -10.26329 -10.26324 -10.26238
 Alpha  occ. eigenvalues --  -10.26136 -10.26089 -10.26024 -10.25998 -10.25722
 Alpha  occ. eigenvalues --  -10.25674 -10.25672 -10.25580 -10.25313 -10.25308
 Alpha  occ. eigenvalues --  -10.25274 -10.25215 -10.25171 -10.25157 -10.25052
 Alpha  occ. eigenvalues --  -10.25033 -10.24975 -10.24752 -10.24470 -10.24263
 Alpha  occ. eigenvalues --  -10.24175 -10.24028 -10.23962 -10.23951 -10.23711
 Alpha  occ. eigenvalues --  -10.23707 -10.23686 -10.23609 -10.23608 -10.23393
 Alpha  occ. eigenvalues --  -10.23168 -10.23004 -10.22997 -10.22805 -10.22729
 Alpha  occ. eigenvalues --  -10.22658  -3.15703  -3.13692  -1.88570  -1.88051
 Alpha  occ. eigenvalues --   -1.87926  -1.86540  -1.86059  -1.85922  -1.10439
 Alpha  occ. eigenvalues --   -1.10394  -1.05883  -1.04794  -1.04667  -1.04200
 Alpha  occ. eigenvalues --   -1.02427  -1.02082  -0.99711  -0.98803  -0.98625
 Alpha  occ. eigenvalues --   -0.97100  -0.96917  -0.96561  -0.96306  -0.95565
 Alpha  occ. eigenvalues --   -0.87092  -0.86259  -0.83821  -0.83729  -0.83381
 Alpha  occ. eigenvalues --   -0.82570  -0.82510  -0.82134  -0.82058  -0.81747
 Alpha  occ. eigenvalues --   -0.81173  -0.81123  -0.80165  -0.79993  -0.78782
 Alpha  occ. eigenvalues --   -0.78512  -0.78240  -0.77896  -0.77214  -0.76680
 Alpha  occ. eigenvalues --   -0.76420  -0.75303  -0.75251  -0.75169  -0.74879
 Alpha  occ. eigenvalues --   -0.74099  -0.72423  -0.72290  -0.71532  -0.71247
 Alpha  occ. eigenvalues --   -0.71208  -0.70690  -0.70582  -0.69931  -0.69902
 Alpha  occ. eigenvalues --   -0.69008  -0.68066  -0.66778  -0.66715  -0.65650
 Alpha  occ. eigenvalues --   -0.63803  -0.63594  -0.63240  -0.63182  -0.62492
 Alpha  occ. eigenvalues --   -0.61896  -0.61625  -0.61401  -0.60101  -0.59984
 Alpha  occ. eigenvalues --   -0.59950  -0.59813  -0.59387  -0.59242  -0.58973
 Alpha  occ. eigenvalues --   -0.58848  -0.57648  -0.55609  -0.54854  -0.54430
 Alpha  occ. eigenvalues --   -0.54339  -0.54074  -0.53742  -0.53722  -0.53204
 Alpha  occ. eigenvalues --   -0.52495  -0.52487  -0.52254  -0.51693  -0.51545
 Alpha  occ. eigenvalues --   -0.51183  -0.50554  -0.50393  -0.50147  -0.50068
 Alpha  occ. eigenvalues --   -0.49388  -0.49290  -0.48702  -0.48541  -0.48336
 Alpha  occ. eigenvalues --   -0.48190  -0.47895  -0.47614  -0.47567  -0.47426
 Alpha  occ. eigenvalues --   -0.47382  -0.47153  -0.47152  -0.47063  -0.46767
 Alpha  occ. eigenvalues --   -0.46667  -0.46189  -0.46175  -0.45990  -0.45964
 Alpha  occ. eigenvalues --   -0.45716  -0.45537  -0.45273  -0.45143  -0.45003
 Alpha  occ. eigenvalues --   -0.44883  -0.44781  -0.44364  -0.44219  -0.44106
 Alpha  occ. eigenvalues --   -0.43996  -0.43904  -0.43685  -0.43577  -0.43381
 Alpha  occ. eigenvalues --   -0.43160  -0.43024  -0.42831  -0.42723  -0.42630
 Alpha  occ. eigenvalues --   -0.42571  -0.42381  -0.42303  -0.41973  -0.41877
 Alpha  occ. eigenvalues --   -0.41798  -0.41495  -0.41399  -0.41377  -0.41071
 Alpha  occ. eigenvalues --   -0.40885  -0.40813  -0.40806  -0.40755  -0.40551
 Alpha  occ. eigenvalues --   -0.40426  -0.40204  -0.40183  -0.40016  -0.39855
 Alpha  occ. eigenvalues --   -0.39545  -0.39515  -0.39363  -0.39273  -0.39118
 Alpha  occ. eigenvalues --   -0.39067  -0.38775  -0.38721  -0.38599  -0.38555
 Alpha  occ. eigenvalues --   -0.38372  -0.38099  -0.37863  -0.37833  -0.37580
 Alpha  occ. eigenvalues --   -0.37452  -0.37320  -0.37309  -0.37132  -0.37084
 Alpha  occ. eigenvalues --   -0.36818  -0.36493  -0.36428  -0.36108  -0.36081
 Alpha  occ. eigenvalues --   -0.35940  -0.35392  -0.35345  -0.35125  -0.34986
 Alpha  occ. eigenvalues --   -0.34804  -0.34738  -0.34535  -0.34526  -0.34259
 Alpha  occ. eigenvalues --   -0.33571  -0.33404  -0.32938  -0.32552  -0.32504
 Alpha  occ. eigenvalues --   -0.32326  -0.32142  -0.31834  -0.31826  -0.31096
 Alpha  occ. eigenvalues --   -0.31007  -0.30857  -0.29823  -0.29416  -0.29206
 Alpha  occ. eigenvalues --   -0.28843  -0.28810  -0.28591  -0.27485  -0.27056
 Alpha  occ. eigenvalues --   -0.26145  -0.26120  -0.25863  -0.25854  -0.25601
 Alpha  occ. eigenvalues --   -0.25441  -0.25069  -0.24574  -0.21623  -0.20854
 Alpha  occ. eigenvalues --   -0.19809  -0.18795
 Alpha virt. eigenvalues --   -0.12188  -0.11005  -0.05905  -0.05248  -0.04188
 Alpha virt. eigenvalues --   -0.04033  -0.02276  -0.02252  -0.00442   0.00216
 Alpha virt. eigenvalues --    0.00268   0.00374   0.00519   0.01023   0.01339

 Mulliken charges:
               1
     1  Mg  12.000000
     2  C    6.000008
     3  C    5.999999
     4  C    5.999999
     5  C    5.999992
     6  N    6.999995
     7  C    6.000001
     8  C    5.999998
     9  C    6.000002
    10  C    5.999994
    11  C    6.000000
    12  C    6.000002
    13  C    5.999998
    14  H    1.000000
    15  N    7.000000
    16  C    5.999998
    17  C    5.999996
    18  C    5.999998
    19  C    5.999997
    20  C    6.000000
    21  C    5.999997
    22  O    7.999997
    23  C    6.000000
    24  N    6.999996
    25  C    5.999999
    26  C    6.000001
    27  C    6.000000
    28  C    6.000004
    29  C    6.000000
    30  C    6.000000
    31  C    6.000000
    32  N    6.999999
    33  C    6.000004
    34  C    6.000004
    35  C    6.000000
    36  C    6.000001
    37  C    6.000001
    38  C    6.000001
    39  O    8.000006
    40  C    5.999999
    41  C    6.000001
    42  O    8.000002
    43  O    7.999999
    44  C    6.000000
    45  H    1.000000
    46  H    0.999999
    47  H    1.000000
    48  H    1.000000
    49  H    1.000000
    50  H    0.999999
    51  H    1.000000
    52  H    1.000000
    53  H    1.000004
    54  H    0.999999
    55  H    1.000000
    56  H    1.000000
    57  H    0.999998
    58  H    0.999998
    59  H    0.999999
    60  H    0.999999
    61  H    0.999999
    62  H    0.999999
    63  H    0.999999
    64  H    1.000000
    65  H    1.000000
    66  H    1.000000
    67  H    0.999999
    68  H    0.999999
    69  H    1.000001
    70  H    1.000000
    71  H    1.000001
    72  H    1.000000
    73  H    1.000001
    74  H    1.000001
    75  H    1.000002
    76  H    1.000002
    77  H    1.000000
    78  H    1.000001
    79  H    1.000001
    80  Mg  12.000001
    81  C    6.000002
    82  C    6.000003
    83  C    6.000000
    84  C    5.999999
    85  N    7.000001
    86  C    5.999996
    87  C    6.000003
    88  C    6.000000
    89  C    5.999999
    90  C    6.000004
    91  C    5.999997
    92  C    6.000002
    93  H    1.000000
    94  N    6.999999
    95  C    5.999998
    96  C    6.000003
    97  C    6.000000
    98  C    6.000001
    99  C    6.000000
   100  C    6.000000
   101  O    8.000000
   102  C    6.000000
   103  N    6.999999
   104  C    6.000001
   105  C    6.000000
   106  C    5.999999
   107  C    6.000005
   108  C    6.000000
   109  C    6.000000
   110  C    6.000000
   111  N    7.000000
   112  C    6.000003
   113  C    6.000001
   114  C    6.000001
   115  C    6.000004
   116  C    6.000000
   117  C    6.000001
   118  O    8.000003
   119  C    6.000000
   120  C    5.999999
   121  O    8.000003
   122  O    8.000000
   123  C    5.999996
   124  H    1.000000
   125  H    1.000000
   126  H    1.000000
   127  H    1.000000
   128  H    1.000001
   129  H    1.000000
   130  H    0.999993
   131  H    1.000000
   132  H    1.000001
   133  H    1.000001
   134  H    1.000000
   135  H    0.999993
   136  H    0.999999
   137  H    0.999999
   138  H    1.000000
   139  H    1.000000
   140  H    1.000000
   141  H    1.000000
   142  H    1.000000
   143  H    1.000000
   144  H    1.000000
   145  H    1.000000
   146  H    1.000000
   147  H    1.000000
   148  H    1.000000
   149  H    1.000000
   150  H    1.000000
   151  H    1.000000
   152  H    1.000001
   153  H    1.000001
   154  H    1.000001
   155  H    1.000001
   156  H    1.000000
   157  H    0.999997
   158  H    1.000001
 Sum of Mulliken charges = 624.00000

 Dipole moment (field-independent basis, Debye):
    X=              0.0019    Y=             -0.0017    Z=             -0.0000  Tot=              0.0025
 Quadrupole moment (field-independent basis, Debye-Ang):
   XX=             -0.0007   YY=             -0.0011   ZZ=              0.0001
   XY=              0.0087   XZ=             -0.0027   YZ=              0.0002

 Normal termination of Gaussian 16 at Fri Oct 15 08:58:28 2021.
