 Gaussian 16, Revision A.03,
 Gaussian 16:  ES64L-G16RevA.03 25-Dec-2016

 --------------------------------------------------------
 #p PBE1PBE/Def2SVP td=(nstates=5) density=(transition=1)
 --------------------------------------------------------

 --------------------------------
 TDDFT excited states in gaussian
 --------------------------------
 Symbolic Z-matrix:
 Charge =  0 Multiplicity = 1

                         Standard orientation:
 ---------------------------------------------------------------------
 Center     Atomic      Atomic             Coordinates (Angstroms)
 Number     Number       Type             X           Y           Z
 ---------------------------------------------------------------------
      1         12           0      -31.929187    0.053518    0.081818
      2          6           0      -28.582610   -0.660001    0.682198
      3          6           0      -30.934284    3.489443   -0.045204
      4          6           0      -34.940439    0.843303   -0.973586
      5          6           0      -32.487773   -3.376294   -0.449309
      6          7           0      -29.963253    1.233155    0.175999
      7          6           0      -28.752211    0.680394    0.527580
      8          6           0      -27.672245    1.764685    0.575061
      9          6           0      -28.528034    3.060968    0.613847
     10          6           0      -29.895401    2.598888    0.183619
     11          6           0      -28.628725    3.857806    1.973511
     12          6           0      -26.704612    1.705106   -0.618316
     13          6           0      -25.539250    2.615989   -0.545025
     14          1           0      -24.281329    2.244808   -1.419642
     15          7           0      -32.844456    1.924510   -0.461091
     16          6           0      -32.282018    3.209782   -0.418195
     17          6           0      -33.288803    4.149550   -0.826020
     18          6           0      -34.437821    3.378378   -1.237316
     19          6           0      -34.104739    1.959908   -0.865325
     20          6           0      -33.022839    5.675949   -0.941197
     21          6           0      -35.697339    4.020443   -1.827537
     22          8           0      -35.856632    5.229695   -1.846135
     23          6           0      -36.755573    3.146147   -2.383626
     24          7           0      -33.549267   -1.135077   -0.398222
     25          6           0      -34.696102   -0.551900   -0.763117
     26          6           0      -35.724760   -1.652952   -1.246129
     27          6           0      -34.961439   -3.029571   -1.148865
     28          6           0      -33.508622   -2.480598   -0.669395
     29          6           0      -37.132112   -1.655252   -0.593436
     30          6           0      -34.890560   -3.700580   -2.537290
     31          6           0      -34.841372   -5.233219   -2.520258
     32          7           0      -30.821055   -1.730131    0.095331
     33          6           0      -31.189375   -3.042202   -0.009257
     34          6           0      -30.031944   -3.877599    0.332708
     35          6           0      -29.050140   -2.992696    0.689618
     36          6           0      -29.520327   -1.716687    0.476616
     37          6           0      -30.015694   -5.407507    0.413148
     38          6           0      -27.685641   -2.895899    1.113182
     39          8           0      -26.866133   -3.733234    1.400683
     40          6           0      -27.329039   -1.372039    1.140217
     41          6           0      -27.032029   -1.006053    2.552409
     42          8           0      -27.695293   -1.253124    3.521164
     43          8           0      -25.893567   -0.181714    2.569624
     44          6           0      -25.516171    0.328339    3.857009
     45          1           0      -30.553154    4.509451    0.031293
     46          1           0      -35.976222    0.951425   -1.303492
     47          1           0      -32.644370   -4.453603   -0.536415
     48          1           0      -27.186264    1.655944    1.543702
     49          1           0      -28.276275    3.820075   -0.125918
     50          1           0      -28.374106    4.880581    1.696478
     51          1           0      -28.235398    3.383116    2.872835
     52          1           0      -29.689572    3.910431    2.217886
     53          1           0      -27.122453    2.006676   -1.579202
     54          1           0      -26.352766    0.682850   -0.757669
     55          1           0      -25.250558    2.667685    0.504777
     56          1           0      -25.864556    3.624069   -0.801443
     57          1           0      -32.963697    5.717862   -2.029252
     58          1           0      -32.039432    6.015754   -0.615688
     59          1           0      -33.707002    6.436441   -0.564351
     60          1           0      -36.224240    2.461109   -3.044303
     61          1           0      -37.415178    3.755953   -3.001218
     62          1           0      -37.185550    2.676989   -1.498348
     63          1           0      -35.920707   -1.423739   -2.293967
     64          1           0      -35.349225   -3.723693   -0.403944
     65          1           0      -37.842051   -1.266832   -1.324345
     66          1           0      -37.079641   -1.103305    0.344434
     67          1           0      -37.459231   -2.681919   -0.429092
     68          1           0      -33.993366   -3.288631   -2.998587
     69          1           0      -35.676044   -3.385328   -3.224410
     70          1           0      -35.706260   -5.509658   -3.124268
     71          1           0      -34.832904   -5.676279   -1.524324
     72          1           0      -33.960760   -5.588859   -3.055321
     73          1           0      -29.155977   -5.906834   -0.032458
     74          1           0      -30.951883   -5.665235   -0.082622
     75          1           0      -30.232319   -5.653765    1.452753
     76          1           0      -26.451024   -1.253439    0.505182
     77          1           0      -24.597078   -0.188300    4.133662
     78          1           0      -26.219181    0.260251    4.687563
     79          1           0      -25.330921    1.395670    3.739299
     80         12           0       31.892927   -0.134970   -0.369484
     81          6           0       29.357384   -1.224735    1.776576
     82          6           0       32.489184    2.455861    1.830243
     83          6           0       33.863229    1.361272   -2.721129
     84          6           0       30.737823   -2.371358   -2.747990
     85          7           0       31.066508    0.427116    1.576773
     86          6           0       30.213630   -0.278032    2.330882
     87          6           0       30.118873    0.181811    3.793057
     88          6           0       30.992567    1.494120    3.762894
     89          6           0       31.677179    1.448619    2.284936
     90          6           0       30.267801    2.831958    4.024810
     91          6           0       30.578532   -0.854715    4.818559
     92          6           0       29.917084   -0.680689    6.197790
     93          1           0       28.927740    0.472746    6.416161
     94          7           0       33.108091    1.585153   -0.421040
     95          6           0       33.277396    2.514422    0.631180
     96          6           0       34.247526    3.505530    0.210970
     97          6           0       34.619208    3.239173   -1.159513
     98          6           0       33.895541    2.011301   -1.485519
     99          6           0       34.771622    4.534089    1.174954
    100          6           0       35.696379    3.948993   -2.096641
    101          8           0       36.014637    3.536762   -3.185617
    102          6           0       36.319430    5.218884   -1.558830
    103          7           0       32.175648   -0.395101   -2.440876
    104          6           0       33.065224    0.307052   -3.200301
    105          6           0       33.136201   -0.223718   -4.679469
    106          6           0       32.195590   -1.425581   -4.609136
    107          6           0       31.673432   -1.384923   -3.185299
    108          6           0       32.906932    0.737358   -5.914774
    109          6           0       32.944310   -2.742170   -4.922702
    110          6           0       33.747516   -3.430526   -3.796899
    111          7           0       30.460025   -1.657846   -0.493898
    112          6           0       30.096824   -2.489656   -1.521198
    113          6           0       29.049154   -3.370668   -1.126818
    114          6           0       28.692284   -2.903051    0.217124
    115          6           0       29.534488   -1.899562    0.500997
    116          6           0       28.386833   -4.472092   -1.828987
    117          6           0       27.736148   -3.021745    1.309231
    118          8           0       26.840387   -3.852629    1.493775
    119          6           0       28.107177   -1.957028    2.383159
    120          6           0       26.989521   -1.059175    2.655793
    121          8           0       26.629940   -0.119888    1.953879
    122          8           0       26.255257   -1.560062    3.701396
    123          6           0       24.870671   -1.094675    3.912146
    124          1           0       32.590476    3.252024    2.571009
    125          1           0       34.623847    1.719577   -3.417886
    126          1           0       30.436068   -3.141925   -3.460414
    127          1           0       29.119519    0.542001    4.036254
    128          1           0       31.881207    1.436749    4.390470
    129          1           0       30.888555    3.234348    4.825143
    130          1           0       29.249252    2.657250    4.370596
    131          1           0       30.246829    3.438938    3.119611
    132          1           0       31.661196   -0.859686    4.938797
    133          1           0       30.336563   -1.859437    4.470992
    134          1           0       30.799744   -0.566479    6.827390
    135          1           0       29.470908   -1.609809    6.555295
    136          1           0       34.135835    4.455277    2.056881
    137          1           0       34.707050    5.519400    0.712843
    138          1           0       35.817806    4.375992    1.441147
    139          1           0       35.704484    6.119314   -1.573864
    140          1           0       37.257859    5.377043   -2.090269
    141          1           0       36.547049    4.935576   -0.531258
    142          1           0       34.183914   -0.517960   -4.736921
    143          1           0       31.410221   -1.242300   -5.341531
    144          1           0       32.210285    0.359699   -6.662281
    145          1           0       33.856546    0.845001   -6.437972
    146          1           0       32.626416    1.715709   -5.523458
    147          1           0       33.597037   -2.506652   -5.762413
    148          1           0       32.171783   -3.414244   -5.297514
    149          1           0       34.664716   -3.762451   -4.282720
    150          1           0       33.259995   -4.321036   -3.400809
    151          1           0       33.916512   -2.807411   -2.919387
    152          1           0       28.250355   -5.283066   -1.114442
    153          1           0       28.907459   -4.851570   -2.708271
    154          1           0       27.355228   -4.201112   -2.054352
    155          1           0       28.391734   -2.549816    3.252359
    156          1           0       24.586016   -0.314922    3.204851
    157          1           0       24.815598   -0.664462    4.912440
    158          1           0       24.319660   -2.023740    3.770419
 ---------------------------------------------------------------------

 SCF Done:  E(RPBE1PBE) =  -4067.39410758     A.U. after   16 cycles

 Excitation energies and oscillator strengths:

 Excited State   1:      Singlet-A      1.8755 eV  661.08 nm  f=0.3905  <S**2>=0.000
     310 -> 316       -0.17473
     312 -> 314        0.69086
     312 <- 314       -0.10931
 This state for optimization and/or second-order correction.
 Total Energy, E(TD-HF/TD-DFT) =  -4067.32518535
 Copying the excited state density for this state as the 1-particle RhoCI density.

 Excited State   2:      Singlet-A      1.9035 eV  651.33 nm  f=0.3839  <S**2>=0.000
     309 -> 315        0.17020
     311 -> 313        0.69345
     311 <- 313       -0.10647

 Excited State   3:      Singlet-A      1.9498 eV  635.87 nm  f=0.0000  <S**2>=0.000
     312 -> 313        0.70711

 Excited State   4:      Singlet-A      2.1187 eV  585.19 nm  f=0.0000  <S**2>=0.000
     311 -> 314        0.70711

 Excited State   5:      Singlet-A      2.1488 eV  577.00 nm  f=0.1397  <S**2>=0.000
     310 -> 314        0.66655
     312 -> 316        0.21033

 The electronic state is 1-A.
 Alpha  occ. eigenvalues --  -46.93035 -46.91662 -19.25663 -19.24553 -19.20738
 Alpha  occ. eigenvalues --  -19.20068 -19.19205 -19.19000 -19.18947 -19.18706
 Alpha  occ. eigenvalues --  -14.42217 -14.41785 -14.41697 -14.41469 -14.39726
 Alpha  occ. eigenvalues --  -14.39085 -14.38893 -14.37917 -10.36568 -10.35652
 Alpha  occ. eigenvalues --  -10.33264 -10.32284 -10.31802 -10.31481 -10.29887
 Alpha  occ. eigenvalues --  -10.29060 -10.28923 -10.28603 -10.28597 -10.28595
 Alpha  occ. eigenvalues --  -10.28530 -10.28488 -10.28446 -10.28445 -10.28437
 Alpha  occ. eigenvalues --  -10.28391 -10.27976 -10.27513 -10.27294 -10.26895
 Alpha  occ. eigenvalues --  -10.26596 -10.26377 -10.26324 -10.26223 -10.26147
 Alpha  occ. eigenvalues --  -10.26083 -10.26064 -10.25976 -10.25975 -10.25902
 Alpha  occ. eigenvalues --  -10.25869 -10.25776 -10.25746 -10.25589 -10.25496
 Alpha  occ. eigenvalues --  -10.25469 -10.25469 -10.25465 -10.25251 -10.25244
 Alpha  occ. eigenvalues --  -10.25235 -10.25228 -10.25176 -10.24802 -10.24719
 Alpha  occ. eigenvalues --  -10.24674 -10.24583 -10.24343 -10.24229 -10.24137
 Alpha  occ. eigenvalues --  -10.23984 -10.23983 -10.23961 -10.23923 -10.23737
 Alpha  occ. eigenvalues --  -10.23712 -10.23556 -10.23460 -10.23453 -10.23319
 Alpha  occ. eigenvalues --  -10.23246 -10.23245 -10.23116 -10.22876 -10.22558
 Alpha  occ. eigenvalues --  -10.21927  -3.15039  -3.13767  -1.87885  -1.87417
 Alpha  occ. eigenvalues --   -1.87248  -1.86609  -1.86138  -1.85997  -1.11416
 Alpha  occ. eigenvalues --   -1.09845  -1.06257  -1.05274  -1.04663  -1.03715
 Alpha  occ. eigenvalues --   -1.03652  -1.01456  -0.99288  -0.99039  -0.98434
 Alpha  occ. eigenvalues --   -0.98289  -0.97973  -0.97450  -0.97143  -0.95627
 Alpha  occ. eigenvalues --   -0.87754  -0.86468  -0.83651  -0.83476  -0.83450
 Alpha  occ. eigenvalues --   -0.83106  -0.83043  -0.82446  -0.82444  -0.81395
 Alpha  occ. eigenvalues --   -0.80870  -0.80712  -0.80409  -0.80189  -0.79414
 Alpha  occ. eigenvalues --   -0.78479  -0.78350  -0.77687  -0.77329  -0.76765
 Alpha  occ. eigenvalues --   -0.76586  -0.76087  -0.75678  -0.75322  -0.75227
 Alpha  occ. eigenvalues --   -0.74537  -0.72444  -0.72091  -0.71703  -0.71417
 Alpha  occ. eigenvalues --   -0.71267  -0.71134  -0.70541  -0.70209  -0.69831
 Alpha  occ. eigenvalues --   -0.69382  -0.67781  -0.66895  -0.66483  -0.65536
 Alpha  occ. eigenvalues --   -0.64160  -0.63774  -0.63419  -0.62847  -0.62304
 Alpha  occ. eigenvalues --   -0.62117  -0.61052  -0.60495  -0.60452  -0.60113
 Alpha  occ. eigenvalues --   -0.59424  -0.59253  -0.59118  -0.59114  -0.58942
 Alpha  occ. eigenvalues --   -0.58285  -0.57308  -0.55983  -0.54703  -0.54546
 Alpha  occ. eigenvalues --   -0.54285  -0.53867  -0.53664  -0.53599  -0.53334
 Alpha  occ. eigenvalues --   -0.53109  -0.52845  -0.52303  -0.52241  -0.51976
 Alpha  occ. eigenvalues --   -0.51103  -0.50408  -0.50406  -0.49987  -0.49935
 Alpha  occ. eigenvalues --   -0.49688  -0.49482  -0.49190  -0.48962  -0.48603
 Alpha  occ. eigenvalues --   -0.48249  -0.48149  -0.47823  -0.47816  -0.47525
 Alpha  occ. eigenvalues --   -0.47454  -0.47329  -0.47256  -0.46778  -0.46690
 Alpha  occ. eigenvalues --   -0.46562  -0.46402  -0.46312  -0.46252  -0.46130
 Alpha  occ. eigenvalues --   -0.45508  -0.45462  -0.45324  -0.45142  -0.44972
 Alpha  occ. eigenvalues --   -0.44873  -0.44762  -0.44519  -0.44204  -0.44094
 Alpha  occ. eigenvalues --   -0.43962  -0.43938  -0.43759  -0.43660  -0.43605
 Alpha  occ. eigenvalues --   -0.43356  -0.43164  -0.42896  -0.42872  -0.42769
 Alpha  occ. eigenvalues --   -0.42761  -0.42316  -0.42242  -0.42026  -0.41918
 Alpha  occ. eigenvalues --   -0.41781  -0.41764  -0.41425  -0.41126  -0.41103
 Alpha  occ. eigenvalues --   -0.40993  -0.40869  -0.40867  -0.40565  -0.40520
 Alpha  occ. eigenvalues --   -0.40384  -0.40126  -0.39997  -0.39861  -0.39779
 Alpha  occ. eigenvalues --   -0.39399  -0.39365  -0.39057  -0.39039  -0.38649
 Alpha  occ. eigenvalues --   -0.38636  -0.38446  -0.38390  -0.38234  -0.38191
 Alpha  occ. eigenvalues --   -0.38022  -0.37997  -0.37879  -0.37795  -0.37637
 Alpha  occ. eigenvalues --   -0.37634  -0.37459  -0.37257  -0.37244  -0.37163
 Alpha  occ. eigenvalues --   -0.36843  -0.36827  -0.36680  -0.36396  -0.36336
 Alpha  occ. eigenvalues --   -0.35933  -0.35729  -0.35542  -0.35468  -0.35223
 Alpha  occ. eigenvalues --   -0.35097  -0.34820  -0.34745  -0.34653  -0.33735
 Alpha  occ. eigenvalues --   -0.33479  -0.33322  -0.33044  -0.32798  -0.32684
 Alpha  occ. eigenvalues --   -0.32684  -0.31955  -0.31727  -0.31511  -0.31194
 Alpha  occ. eigenvalues --   -0.31137  -0.30601  -0.30147  -0.29567  -0.29546
 Alpha  occ. eigenvalues --   -0.29252  -0.28964  -0.28479  -0.27394  -0.26601
 Alpha  occ. eigenvalues --   -0.26333  -0.26025  -0.25802  -0.25728  -0.25600
 Alpha  occ. eigenvalues --   -0.25182  -0.25122  -0.24382  -0.21555  -0.20499
 Alpha  occ. eigenvalues --   -0.19273  -0.18883
 Alpha virt. eigenvalues --   -0.11509  -0.11277  -0.05478  -0.04868  -0.03622
 Alpha virt. eigenvalues --   -0.03317  -0.01919  -0.01722  -0.00733  -0.00167
 Alpha virt. eigenvalues --    0.00293   0.00673   0.00703   0.01096   0.01711

 Mulliken charges:
               1
     1  Mg  11.999995
     2  C    6.000135
     3  C    5.999916
     4  C    5.999776
     5  C    6.000088
     6  N    7.000019
     7  C    5.999831
     8  C    6.000036
     9  C    5.999961
    10  C    6.000191
    11  C    5.999997
    12  C    6.000026
    13  C    6.000009
    14  H    0.999959
    15  N    6.999953
    16  C    6.000280
    17  C    6.000062
    18  C    6.000117
    19  C    6.000274
    20  C    5.999982
    21  C    6.000072
    22  O    8.000141
    23  C    5.999988
    24  N    6.999987
    25  C    6.000262
    26  C    5.999937
    27  C    6.000051
    28  C    5.999792
    29  C    5.999997
    30  C    6.000028
    31  C    6.000014
    32  N    6.999975
    33  C    5.999815
    34  C    5.999750
    35  C    6.000080
    36  C    5.999794
    37  C    5.999998
    38  C    5.999853
    39  O    7.999821
    40  C    5.999990
    41  C    5.999956
    42  O    7.999991
    43  O    7.999979
    44  C    6.000021
    45  H    1.000076
    46  H    1.000076
    47  H    0.999945
    48  H    0.999999
    49  H    0.999997
    50  H    1.000021
    51  H    1.000077
    52  H    0.999986
    53  H    0.999956
    54  H    1.000040
    55  H    0.999998
    56  H    0.999967
    57  H    1.000087
    58  H    1.000104
    59  H    1.000114
    60  H    1.000051
    61  H    1.000090
    62  H    1.000054
    63  H    1.000002
    64  H    0.999994
    65  H    1.000001
    66  H    0.999995
    67  H    1.000056
    68  H    0.999987
    69  H    0.999947
    70  H    0.999977
    71  H    1.000008
    72  H    1.000002
    73  H    0.999880
    74  H    0.999905
    75  H    0.999883
    76  H    0.999926
    77  H    0.999959
    78  H    0.999984
    79  H    0.999958
    80  Mg  12.002707
    81  C    5.984649
    82  C    6.013233
    83  C    6.016257
    84  C    5.998758
    85  N    6.993756
    86  C    6.030887
    87  C    5.987120
    88  C    6.002549
    89  C    5.973984
    90  C    6.002639
    91  C    5.997984
    92  C    5.999015
    93  H    1.004118
    94  N    7.001377
    95  C    5.962429
    96  C    5.980255
    97  C    5.981911
    98  C    5.972362
    99  C    6.004269
   100  C    5.985732
   101  O    7.974862
   102  C    6.003889
   103  N    7.006853
   104  C    5.965324
   105  C    6.007771
   106  C    5.990085
   107  C    6.030209
   108  C    5.998835
   109  C    5.995531
   110  C    5.994478
   111  N    7.001683
   112  C    6.023642
   113  C    6.038345
   114  C    6.000386
   115  C    6.020378
   116  C    5.995169
   117  C    6.014191
   118  O    8.024784
   119  C    6.001831
   120  C    6.005043
   121  O    8.006762
   122  O    8.000572
   123  C    5.998576
   124  H    0.990199
   125  H    0.993780
   126  H    1.010299
   127  H    1.000889
   128  H    1.000935
   129  H    0.998851
   130  H    0.988339
   131  H    1.002875
   132  H    1.007791
   133  H    0.992506
   134  H    1.004119
   135  H    0.997665
   136  H    0.983608
   137  H    0.982361
   138  H    0.980166
   139  H    0.990281
   140  H    0.986079
   141  H    0.997957
   142  H    1.001717
   143  H    1.003406
   144  H    0.990913
   145  H    1.000422
   146  H    1.003858
   147  H    1.011147
   148  H    0.996994
   149  H    1.007903
   150  H    0.994833
   151  H    1.006661
   152  H    1.019187
   153  H    1.018966
   154  H    1.023416
   155  H    1.007093
   156  H    1.003350
   157  H    1.005961
   158  H    1.000279
 Sum of Mulliken charges = 624.00000

 Dipole moment (field-independent basis, Debye):
    X=             -6.7821    Y=             -7.9825    Z=             -0.3240  Tot=             10.4797
 Quadrupole moment (field-independent basis, Debye-Ang):
   XX=           -423.2272   YY=             -2.0164   ZZ=              1.1357
   XY=           -258.0100   XZ=             -7.0995   YZ=              5.0522

 Normal termination of Gaussian 16 at Fri Oct 15 16:30:58 2021.
