 Gaussian 16, Revision A.03,
 Gaussian 16:  ES64L-G16RevA.03 25-Dec-2016

 --------------------------------------------------------
 #p PBE1PBE/Def2SVP td=(nstates=5) density=(transition=1)
 --------------------------------------------------------

 --------------------------------
 TDDFT excited states in gaussian
 --------------------------------
 Symbolic Z-matrix:
 Charge =  0 Multiplicity = 1

                         Standard orientation:
 ---------------------------------------------------------------------
 Center     Atomic      Atomic             Coordinates (Angstroms)
 Number     Number       Type             X           Y           Z
 ---------------------------------------------------------------------
      1         12           0       -8.682261    0.436835    0.562956
      2          6           0       -7.856011   -2.052061   -1.785692
      3          6           0       -6.605315   -1.242570    2.789995
      4          6           0       -9.025722    2.949924    2.721192
      5          6           0       -9.902695    2.351522   -2.061527
      6          7           0       -7.258456   -1.369114    0.387811
      7          6           0       -7.156699   -2.325556   -0.603529
      8          6           0       -6.508040   -3.628304   -0.185053
      9          6           0       -6.127489   -3.375448    1.293283
     10          6           0       -6.659554   -1.925503    1.538835
     11          6           0       -6.726923   -4.428808    2.310961
     12          6           0       -5.237735   -4.093692   -1.027598
     13          6           0       -4.333625   -3.005470   -1.629231
     14          1           0       -2.965900   -2.718062   -0.941990
     15          7           0       -7.941596    0.784899    2.449212
     16          6           0       -7.163720   -0.037750    3.213337
     17          6           0       -6.990817    0.539229    4.553926
     18          6           0       -7.701947    1.778180    4.556335
     19          6           0       -8.260970    1.881935    3.173480
     20          6           0       -6.205817   -0.139325    5.670219
     21          6           0       -7.630083    2.700816    5.829794
     22          8           0       -6.931957    2.333398    6.764500
     23          6           0       -8.371554    4.103338    5.843870
     24          7           0       -9.239462    2.376376    0.321939
     25          6           0       -9.466363    3.215781    1.410221
     26          6           0      -10.179086    4.602377    0.928759
     27          6           0      -10.267704    4.344751   -0.671866
     28          6           0       -9.778466    2.937668   -0.795542
     29          6           0      -11.558906    4.836452    1.611299
     30          6           0       -9.415251    5.341994   -1.568009
     31          6           0      -10.103127    6.067115   -2.735071
     32          7           0       -8.981448    0.191435   -1.512946
     33          6           0       -9.471577    1.034505   -2.477135
     34          6           0       -9.393863    0.348256   -3.784029
     35          6           0       -8.858098   -0.936204   -3.498472
     36          6           0       -8.588354   -0.934371   -2.101377
     37          6           0       -9.776556    0.891816   -5.132702
     38          6           0       -8.406736   -2.179017   -4.152326
     39          8           0       -8.509369   -2.606274   -5.311540
     40          6           0       -7.915648   -3.027061   -2.988514
     41          6           0       -8.697074   -4.200791   -2.788674
     42          8           0       -9.809581   -4.169564   -2.201596
     43          8           0       -8.047085   -5.345955   -3.290133
     44          6           0       -8.640506   -6.651496   -3.019605
     45          1           0       -6.110332   -1.808852    3.581273
     46          1           0       -9.292960    3.720303    3.446943
     47          1           0      -10.357829    2.992874   -2.818550
     48          1           0       -7.319108   -4.344895   -0.308886
     49          1           0       -5.043640   -3.265789    1.299555
     50          1           0       -5.920872   -5.040565    2.716004
     51          1           0       -7.429504   -5.032717    1.736076
     52          1           0       -7.224535   -3.936357    3.147072
     53          1           0       -5.717387   -4.613736   -1.857777
     54          1           0       -4.665760   -4.813042   -0.441076
     55          1           0       -4.865970   -2.055810   -1.692157
     56          1           0       -4.150739   -3.258200   -2.672801
     57          1           0       -5.214774    0.277231    5.850392
     58          1           0       -6.251417   -1.224518    5.577837
     59          1           0       -6.732512   -0.051667    6.620326
     60          1           0       -9.384082    3.927152    5.479972
     61          1           0       -7.816848    4.770125    5.184256
     62          1           0       -8.269066    4.649667    6.781484
     63          1           0       -9.546056    5.406430    1.302907
     64          1           0      -11.325333    4.360970   -0.936009
     65          1           0      -12.324243    4.449299    0.938962
     66          1           0      -11.714950    5.874316    1.905786
     67          1           0      -11.667830    4.342649    2.576764
     68          1           0       -8.547315    4.780704   -1.915532
     69          1           0       -9.119277    6.089009   -0.831495
     70          1           0       -9.385616    6.433503   -3.469778
     71          1           0      -10.604572    6.891833   -2.229120
     72          1           0      -10.768347    5.314757   -3.159314
     73          1           0       -9.662631    1.969996   -5.023511
     74          1           0      -10.840441    0.659653   -5.180806
     75          1           0       -9.276481    0.425988   -5.982348
     76          1           0       -6.903924   -3.268761   -3.313490
     77          1           0       -9.613358   -6.862017   -3.463913
     78          1           0       -8.729251   -6.803649   -1.943530
     79          1           0       -7.878891   -7.390748   -3.268237
     80         12           0        8.656939    0.663114   -0.084608
     81          6           0        7.439488   -2.520791    0.811368
     82          6           0        5.362172    1.607597   -0.528560
     83          6           0        9.693443    3.756787   -1.089316
     84          6           0       11.808772   -0.483991    0.054570
     85          7           0        6.605787   -0.348658    0.156121
     86          6           0        6.330559   -1.612480    0.664260
     87          6           0        4.851119   -1.752606    0.961559
     88          6           0        4.202946   -0.551887    0.180985
     89          6           0        5.447365    0.274035   -0.055681
     90          6           0        3.380234   -0.937918   -1.110286
     91          6           0        4.520737   -1.639706    2.457306
     92          6           0        3.391680   -2.550055    2.952145
     93          1           0        1.939261   -2.247960    2.489230
     94          7           0        7.681803    2.457260   -0.632140
     95          6           0        6.340571    2.564484   -0.773899
     96          6           0        6.040467    3.859531   -1.292252
     97          6           0        7.256078    4.624659   -1.354733
     98          6           0        8.258250    3.611239   -1.075974
     99          6           0        4.637098    4.280978   -1.629186
    100          6           0        7.531711    6.070386   -1.768401
    101          8           0        8.650091    6.602622   -1.593757
    102          6           0        6.498056    6.929812   -2.487435
    103          7           0       10.469863    1.526095   -0.370235
    104          6           0       10.692760    2.809354   -0.860300
    105          6           0       12.161234    3.008508   -1.051990
    106          6           0       12.923902    1.699746   -0.635168
    107          6           0       11.703691    0.850038   -0.244950
    108          6           0       12.562702    3.603855   -2.435064
    109          6           0       13.924209    1.853918    0.530924
    110          6           0       15.380196    2.057406    0.069243
    111          7           0        9.498362   -1.088196    0.283993
    112          6           0       10.838480   -1.459438    0.383902
    113          6           0       11.013609   -2.891551    0.829062
    114          6           0        9.674955   -3.296320    0.956749
    115          6           0        8.810742   -2.188836    0.679160
    116          6           0       12.324837   -3.623187    1.050830
    117          6           0        8.872078   -4.457674    1.308907
    118          8           0        9.200311   -5.607608    1.603803
    119          6           0        7.376587   -3.925581    1.337010
    120          6           0        6.580690   -4.909502    0.457106
    121          8           0        6.949217   -5.402343   -0.589066
    122          8           0        5.424618   -5.280421    1.141173
    123          6           0        4.595182   -6.223883    0.391266
    124          1           0        4.310436    1.895847   -0.581803
    125          1           0       10.135068    4.708918   -1.390009
    126          1           0       12.846670   -0.807775   -0.043870
    127          1           0        4.398016   -2.670892    0.588804
    128          1           0        3.478204    0.025702    0.754843
    129          1           0        3.246688   -2.006574   -1.280782
    130          1           0        3.785422   -0.603273   -2.064940
    131          1           0        2.358373   -0.564813   -1.041582
    132          1           0        4.256413   -0.617970    2.728893
    133          1           0        5.376908   -1.934538    3.064387
    134          1           0        3.392042   -2.645007    4.037913
    135          1           0        3.566950   -3.587165    2.666922
    136          1           0        4.292453    3.439542   -2.230460
    137          1           0        4.508467    5.169245   -2.247511
    138          1           0        3.971245    4.381439   -0.772374
    139          1           0        6.075683    6.397487   -3.339846
    140          1           0        7.091050    7.796539   -2.779035
    141          1           0        5.668365    7.181539   -1.826880
    142          1           0       12.438894    3.868407   -0.441658
    143          1           0       13.421380    1.173344   -1.450753
    144          1           0       11.654406    3.698319   -3.030587
    145          1           0       13.233029    2.905983   -2.936086
    146          1           0       12.991069    4.575703   -2.187610
    147          1           0       13.760628    1.016946    1.209400
    148          1           0       13.742696    2.779545    1.077592
    149          1           0       15.392790    2.469231   -0.940077
    150          1           0       15.989759    1.159610   -0.034886
    151          1           0       15.839043    2.797577    0.725434
    152          1           0       12.764034   -3.224729    1.965569
    153          1           0       13.074455   -3.494382    0.270323
    154          1           0       12.057735   -4.672724    1.173212
    155          1           0        6.911126   -3.877052    2.321255
    156          1           0        3.852317   -5.762701   -0.260250
    157          1           0        4.131699   -6.832596    1.167511
    158          1           0        5.071504   -6.913722   -0.305379
 ---------------------------------------------------------------------

 SCF Done:  E(RPBE1PBE) =  -4067.39941837     A.U. after   16 cycles

 Excitation energies and oscillator strengths:

 Excited State   1:      Singlet-A      1.8491 eV  670.50 nm  f=0.3548  <S**2>=0.000
     310 -> 316       -0.18093
     312 -> 313        0.69129
     312 <- 313       -0.10441
 This state for optimization and/or second-order correction.
 Total Energy, E(TD-HF/TD-DFT) =  -4067.33146449
 Copying the excited state density for this state as the 1-particle RhoCI density.

 Excited State   2:      Singlet-A      1.8688 eV  663.43 nm  f=0.0000  <S**2>=0.000
     311 -> 313        0.70708

 Excited State   3:      Singlet-A      1.8698 eV  663.09 nm  f=0.3639  <S**2>=0.000
     309 -> 315        0.17512
     311 -> 314        0.69202
     311 <- 314       -0.10386

 Excited State   4:      Singlet-A      1.8909 eV  655.67 nm  f=0.0000  <S**2>=0.000
     312 -> 314        0.70707

 Excited State   5:      Singlet-A      2.2265 eV  556.86 nm  f=0.0998  <S**2>=0.000
     310 -> 313        0.64902
     312 -> 316        0.27326

 The electronic state is 1-A.
 Alpha  occ. eigenvalues --  -46.92546 -46.91042 -19.26579 -19.26409 -19.20609
 Alpha  occ. eigenvalues --  -19.20602 -19.19974 -19.19652 -19.19347 -19.19304
 Alpha  occ. eigenvalues --  -14.42260 -14.42000 -14.41915 -14.40935 -14.39723
 Alpha  occ. eigenvalues --  -14.39566 -14.39210 -14.39035 -10.37144 -10.36700
 Alpha  occ. eigenvalues --  -10.33820 -10.32866 -10.32720 -10.32256 -10.29746
 Alpha  occ. eigenvalues --  -10.29460 -10.29280 -10.29269 -10.28728 -10.28647
 Alpha  occ. eigenvalues --  -10.28640 -10.28630 -10.28425 -10.28339 -10.28195
 Alpha  occ. eigenvalues --  -10.28164 -10.28157 -10.28131 -10.27642 -10.27328
 Alpha  occ. eigenvalues --  -10.27046 -10.27044 -10.26809 -10.26598 -10.26596
 Alpha  occ. eigenvalues --  -10.26457 -10.26433 -10.26392 -10.26354 -10.26338
 Alpha  occ. eigenvalues --  -10.26291 -10.26149 -10.26137 -10.26123 -10.26102
 Alpha  occ. eigenvalues --  -10.26094 -10.25734 -10.25677 -10.25567 -10.25363
 Alpha  occ. eigenvalues --  -10.25273 -10.25082 -10.25013 -10.24954 -10.24855
 Alpha  occ. eigenvalues --  -10.24670 -10.24618 -10.24583 -10.24467 -10.24448
 Alpha  occ. eigenvalues --  -10.24447 -10.24266 -10.24221 -10.24000 -10.23991
 Alpha  occ. eigenvalues --  -10.23914 -10.23753 -10.23710 -10.23703 -10.23577
 Alpha  occ. eigenvalues --  -10.23565 -10.23479 -10.23215 -10.23143 -10.23029
 Alpha  occ. eigenvalues --  -10.23013  -3.14746  -3.13398  -1.87544  -1.87137
 Alpha  occ. eigenvalues --   -1.86973  -1.86239  -1.85750  -1.85667  -1.11048
 Alpha  occ. eigenvalues --   -1.09846  -1.05292  -1.04001  -1.03986  -1.03512
 Alpha  occ. eigenvalues --   -1.02992  -1.01944  -0.99225  -0.99053  -0.98374
 Alpha  occ. eigenvalues --   -0.98209  -0.97781  -0.97415  -0.96690  -0.96068
 Alpha  occ. eigenvalues --   -0.87716  -0.86913  -0.83672  -0.83647  -0.83319
 Alpha  occ. eigenvalues --   -0.83290  -0.82556  -0.82525  -0.81791  -0.81323
 Alpha  occ. eigenvalues --   -0.81186  -0.80639  -0.80470  -0.80002  -0.79021
 Alpha  occ. eigenvalues --   -0.78610  -0.78355  -0.77871  -0.77262  -0.76556
 Alpha  occ. eigenvalues --   -0.76058  -0.75814  -0.75414  -0.75237  -0.74622
 Alpha  occ. eigenvalues --   -0.74368  -0.72698  -0.72666  -0.71768  -0.71701
 Alpha  occ. eigenvalues --   -0.71538  -0.71213  -0.71013  -0.70439  -0.69463
 Alpha  occ. eigenvalues --   -0.69382  -0.67130  -0.67004  -0.66384  -0.66045
 Alpha  occ. eigenvalues --   -0.63861  -0.63681  -0.63545  -0.63239  -0.63026
 Alpha  occ. eigenvalues --   -0.62622  -0.61645  -0.61434  -0.60382  -0.60152
 Alpha  occ. eigenvalues --   -0.59898  -0.59877  -0.59308  -0.58976  -0.58943
 Alpha  occ. eigenvalues --   -0.58755  -0.57213  -0.57137  -0.54974  -0.54866
 Alpha  occ. eigenvalues --   -0.54594  -0.54323  -0.53803  -0.53486  -0.53415
 Alpha  occ. eigenvalues --   -0.53134  -0.52548  -0.52259  -0.52016  -0.51966
 Alpha  occ. eigenvalues --   -0.50859  -0.50592  -0.50255  -0.49987  -0.49713
 Alpha  occ. eigenvalues --   -0.49709  -0.49167  -0.49058  -0.48979  -0.48570
 Alpha  occ. eigenvalues --   -0.48356  -0.48065  -0.47785  -0.47669  -0.47461
 Alpha  occ. eigenvalues --   -0.47355  -0.47139  -0.47128  -0.46857  -0.46669
 Alpha  occ. eigenvalues --   -0.46394  -0.46390  -0.46170  -0.45993  -0.45787
 Alpha  occ. eigenvalues --   -0.45661  -0.45367  -0.45128  -0.45112  -0.44743
 Alpha  occ. eigenvalues --   -0.44601  -0.44540  -0.44373  -0.44144  -0.44109
 Alpha  occ. eigenvalues --   -0.44036  -0.43978  -0.43726  -0.43667  -0.43489
 Alpha  occ. eigenvalues --   -0.43404  -0.43133  -0.43124  -0.43032  -0.42768
 Alpha  occ. eigenvalues --   -0.42682  -0.42281  -0.42163  -0.42080  -0.41981
 Alpha  occ. eigenvalues --   -0.41548  -0.41463  -0.41354  -0.41325  -0.41223
 Alpha  occ. eigenvalues --   -0.41182  -0.41131  -0.40964  -0.40763  -0.40605
 Alpha  occ. eigenvalues --   -0.40290  -0.40229  -0.39945  -0.39738  -0.39705
 Alpha  occ. eigenvalues --   -0.39627  -0.39485  -0.39380  -0.39268  -0.39169
 Alpha  occ. eigenvalues --   -0.39128  -0.38995  -0.38893  -0.38379  -0.38281
 Alpha  occ. eigenvalues --   -0.38253  -0.38002  -0.37957  -0.37953  -0.37899
 Alpha  occ. eigenvalues --   -0.37640  -0.37450  -0.37449  -0.37249  -0.37143
 Alpha  occ. eigenvalues --   -0.37083  -0.36733  -0.36697  -0.36529  -0.36375
 Alpha  occ. eigenvalues --   -0.36163  -0.36049  -0.35863  -0.35726  -0.35433
 Alpha  occ. eigenvalues --   -0.35425  -0.35151  -0.34974  -0.34845  -0.34639
 Alpha  occ. eigenvalues --   -0.34116  -0.33675  -0.33299  -0.32911  -0.32843
 Alpha  occ. eigenvalues --   -0.32729  -0.32290  -0.32272  -0.32218  -0.31851
 Alpha  occ. eigenvalues --   -0.31798  -0.31649  -0.30321  -0.30181  -0.29847
 Alpha  occ. eigenvalues --   -0.29245  -0.29055  -0.28413  -0.27096  -0.26674
 Alpha  occ. eigenvalues --   -0.26393  -0.26293  -0.26167  -0.26033  -0.25806
 Alpha  occ. eigenvalues --   -0.25773  -0.25518  -0.25499  -0.21236  -0.20828
 Alpha  occ. eigenvalues --   -0.18684  -0.18669
 Alpha virt. eigenvalues --   -0.11031  -0.10941  -0.05472  -0.05217  -0.04201
 Alpha virt. eigenvalues --   -0.04169  -0.02607  -0.02584  -0.01350  -0.01212
 Alpha virt. eigenvalues --    0.00310   0.00546   0.00602   0.00772   0.01362

 Mulliken charges:
               1
     1  Mg  12.000267
     2  C    5.999859
     3  C    6.000198
     4  C    6.000540
     5  C    6.000137
     6  N    6.999929
     7  C    6.000534
     8  C    5.999937
     9  C    6.000062
    10  C    5.999660
    11  C    6.000180
    12  C    6.000070
    13  C    5.999670
    14  H    1.000824
    15  N    7.000104
    16  C    5.999509
    17  C    5.999703
    18  C    5.999914
    19  C    5.999471
    20  C    6.000193
    21  C    5.999983
    22  O    7.999554
    23  C    5.999909
    24  N    7.000171
    25  C    5.999618
    26  C    6.000243
    27  C    5.999635
    28  C    6.000658
    29  C    6.000068
    30  C    5.999855
    31  C    5.999940
    32  N    6.999954
    33  C    6.000724
    34  C    6.000813
    35  C    5.999915
    36  C    6.000571
    37  C    5.999990
    38  C    6.000486
    39  O    8.000263
    40  C    5.999713
    41  C    6.000041
    42  O    7.999936
    43  O    8.000007
    44  C    6.000170
    45  H    0.999304
    46  H    1.000017
    47  H    1.000244
    48  H    0.999637
    49  H    0.999823
    50  H    0.999130
    51  H    0.999527
    52  H    1.000031
    53  H    0.999566
    54  H    0.999181
    55  H    1.000664
    56  H    0.999953
    57  H    0.999890
    58  H    0.999180
    59  H    0.999379
    60  H    0.999598
    61  H    1.000418
    62  H    0.999733
    63  H    1.000434
    64  H    0.999816
    65  H    0.999628
    66  H    0.999983
    67  H    0.999844
    68  H    1.000583
    69  H    1.000622
    70  H    1.000570
    71  H    0.999980
    72  H    0.999576
    73  H    1.000633
    74  H    1.000026
    75  H    1.000347
    76  H    1.000249
    77  H    0.999888
    78  H    0.999899
    79  H    0.999667
    80  Mg  11.999528
    81  C    5.982711
    82  C    6.010337
    83  C    6.017483
    84  C    5.990984
    85  N    6.993979
    86  C    6.031781
    87  C    5.990679
    88  C    6.010419
    89  C    5.967905
    90  C    6.003003
    91  C    5.996875
    92  C    5.998680
    93  H    1.009315
    94  N    7.003627
    95  C    5.965311
    96  C    5.975657
    97  C    5.986928
    98  C    5.971246
    99  C    6.002181
   100  C    5.988893
   101  O    7.973473
   102  C    6.003255
   103  N    7.006058
   104  C    5.967589
   105  C    6.008755
   106  C    5.988803
   107  C    6.030513
   108  C    6.001914
   109  C    5.996303
   110  C    5.999985
   111  N    7.000344
   112  C    6.033920
   113  C    6.032216
   114  C    5.999129
   115  C    6.029140
   116  C    6.000623
   117  C    6.016655
   118  O    8.029029
   119  C    5.999980
   120  C    6.006155
   121  O    8.002501
   122  O    8.002129
   123  C    5.997683
   124  H    0.990394
   125  H    0.993865
   126  H    1.009320
   127  H    1.000363
   128  H    0.999164
   129  H    0.986891
   130  H    1.000972
   131  H    0.997767
   132  H    1.011465
   133  H    0.993468
   134  H    1.000473
   135  H    0.996119
   136  H    0.984576
   137  H    0.985058
   138  H    0.979372
   139  H    0.993476
   140  H    0.987422
   141  H    0.992585
   142  H    0.999076
   143  H    1.001264
   144  H    1.004901
   145  H    0.989766
   146  H    0.998642
   147  H    0.994347
   148  H    1.009865
   149  H    1.005907
   150  H    0.998341
   151  H    1.004128
   152  H    1.017884
   153  H    1.017731
   154  H    1.011494
   155  H    1.007887
   156  H    1.007039
   157  H    1.003587
   158  H    1.001719
 Sum of Mulliken charges = 624.00000

 Dipole moment (field-independent basis, Debye):
    X=              4.5065    Y=             -8.5982    Z=              2.6386  Tot=             10.0598
 Quadrupole moment (field-independent basis, Debye-Ang):
   XX=             79.4541   YY=             -9.9459   ZZ=             -1.5014
   XY=            -70.4474   XZ=             23.9046   YZ=              3.7991

 Normal termination of Gaussian 16 at Thu Oct 14 21:22:54 2021.
