 Gaussian 16, Revision A.03,
 Gaussian 16:  ES64L-G16RevA.03 25-Dec-2016

 --------------------------------------------------------
 #p PBE1PBE/Def2SVP td=(nstates=5) density=(transition=1)
 --------------------------------------------------------

 --------------------------------
 TDDFT excited states in gaussian
 --------------------------------
 Symbolic Z-matrix:
 Charge =  0 Multiplicity = 1

                         Standard orientation:
 ---------------------------------------------------------------------
 Center     Atomic      Atomic             Coordinates (Angstroms)
 Number     Number       Type             X           Y           Z
 ---------------------------------------------------------------------
      1         12           0      -21.302574   -0.520436    0.011784
      2          6           0      -19.735526    2.734490   -0.861905
      3          6           0      -20.640752    0.391194    3.198450
      4          6           0      -22.390387   -3.434830    0.620546
      5          6           0      -21.007422   -1.317012   -3.445421
      6          7           0      -20.262323    1.319455    1.000300
      7          6           0      -19.899364    2.542986    0.463267
      8          6           0      -19.614673    3.635974    1.499776
      9          6           0      -19.468083    2.730450    2.761475
     10          6           0      -20.153687    1.375787    2.332700
     11          6           0      -18.063987    2.512838    3.230587
     12          6           0      -20.651983    4.803092    1.612597
     13          6           0      -20.154588    6.147282    2.027898
     14          1           0      -21.095767    6.941577    2.927949
     15          7           0      -21.548619   -1.429381    1.725542
     16          6           0      -21.273226   -0.877868    2.994325
     17          6           0      -21.789174   -1.780624    3.982604
     18          6           0      -22.442020   -2.825302    3.194501
     19          6           0      -22.138281   -2.569227    1.832885
     20          6           0      -21.784180   -1.522164    5.534706
     21          6           0      -23.260766   -3.947046    3.756340
     22          8           0      -23.743327   -4.848894    3.028871
     23          6           0      -23.610059   -4.058052    5.195530
     24          7           0      -21.515273   -2.217489   -1.156460
     25          6           0      -22.024995   -3.350865   -0.670052
     26          6           0      -22.224943   -4.468062   -1.743810
     27          6           0      -22.194139   -3.566133   -3.033593
     28          6           0      -21.481232   -2.278321   -2.537777
     29          6           0      -21.058793   -5.508194   -1.739206
     30          6           0      -23.649398   -3.214473   -3.558251
     31          6           0      -24.652243   -4.354628   -3.833468
     32          7           0      -20.581406    0.484643   -1.804849
     33          6           0      -20.605158    0.027873   -3.117681
     34          6           0      -20.026434    1.024305   -3.988266
     35          6           0      -19.711025    2.106328   -3.156553
     36          6           0      -19.981161    1.714445   -1.816615
     37          6           0      -19.937800    0.970612   -5.476417
     38          6           0      -19.171565    3.459791   -3.151889
     39          8           0      -18.803308    4.230876   -4.028115
     40          6           0      -19.282197    3.906720   -1.602885
     41          6           0      -17.968381    4.415841   -1.248770
     42          8           0      -16.902466    3.780363   -1.232291
     43          8           0      -18.005868    5.775938   -1.363867
     44          6           0      -16.816606    6.531365   -1.132684
     45          1           0      -20.533103    0.810716    4.201058
     46          1           0      -22.767845   -4.446149    0.784380
     47          1           0      -20.957716   -1.613241   -4.495659
     48          1           0      -18.640822    4.061214    1.256181
     49          1           0      -20.107623    3.090438    3.566846
     50          1           0      -17.794867    1.491161    2.962460
     51          1           0      -18.027687    2.569235    4.318427
     52          1           0      -17.294489    3.171637    2.828628
     53          1           0      -21.368644    4.512577    2.380247
     54          1           0      -21.192974    4.846694    0.667712
     55          1           0      -20.035956    6.676292    1.082503
     56          1           0      -19.117585    6.125424    2.363214
     57          1           0      -22.748078   -1.261778    5.970970
     58          1           0      -21.028152   -0.788365    5.812815
     59          1           0      -21.439414   -2.487416    5.907628
     60          1           0      -22.726062   -4.397802    5.735786
     61          1           0      -24.401608   -4.806106    5.247576
     62          1           0      -24.000972   -3.085873    5.493944
     63          1           0      -23.180585   -4.937647   -1.508279
     64          1           0      -21.617285   -3.958403   -3.870579
     65          1           0      -21.488267   -6.448901   -1.393742
     66          1           0      -20.174912   -5.230544   -1.165870
     67          1           0      -20.828054   -5.578286   -2.803143
     68          1           0      -23.555545   -2.717567   -4.523554
     69          1           0      -24.042438   -2.464528   -2.872037
     70          1           0      -25.501619   -4.134930   -3.186809
     71          1           0      -24.140928   -5.248511   -3.475066
     72          1           0      -24.975896   -4.386970   -4.873698
     73          1           0      -20.592216    0.144055   -5.754216
     74          1           0      -18.898195    0.737690   -5.706615
     75          1           0      -20.177230    1.911893   -5.971121
     76          1           0      -20.040440    4.682928   -1.501208
     77          1           0      -15.981366    5.892954   -0.843907
     78          1           0      -17.052441    7.174912   -0.285048
     79          1           0      -16.606186    7.202607   -1.964087
     80         12           0       20.181652   -0.853904   -0.174980
     81          6           0       22.433839    1.905919   -0.556890
     82          6           0       18.144563    1.356616    1.670946
     83          6           0       18.389046   -3.382046    0.873459
     84          6           0       22.471358   -2.871211   -1.675041
     85          7           0       20.287334    1.380562    0.416132
     86          6           0       21.255334    2.244421    0.026233
     87          6           0       20.837125    3.651540    0.419876
     88          6           0       19.451157    3.562866    1.118726
     89          6           0       19.248065    2.037050    1.049297
     90          6           0       19.432504    4.201052    2.620195
     91          6           0       20.748532    4.637058   -0.822998
     92          6           0       21.429275    5.997331   -0.667460
     93          1           0       21.486982    6.724142    0.735842
     94          7           0       18.512694   -0.998718    1.152926
     95          6           0       17.858799   -0.017882    1.738372
     96          6           0       16.797999   -0.607713    2.505347
     97          6           0       16.701111   -1.991567    2.211781
     98          6           0       17.894033   -2.179009    1.428241
     99          6           0       15.751112    0.225130    3.243291
    100          6           0       15.659474   -3.065664    2.483246
    101          8           0       15.821275   -4.235451    2.187552
    102          6           0       14.367280   -2.594604    3.091752
    103          7           0       20.607099   -2.855735   -0.082510
    104          6           0       19.573104   -3.740707    0.228579
    105          6           0       19.836755   -5.186180   -0.274011
    106          6           0       21.069230   -4.903485   -1.213396
    107          6           0       21.421039   -3.433000   -0.988383
    108          6           0       20.093584   -6.136921    0.904161
    109          6           0       20.741550   -5.081900   -2.770981
    110          6           0       21.265610   -6.288716   -3.474517
    111          7           0       21.978512   -0.566177   -1.047812
    112          6           0       22.818851   -1.510431   -1.596953
    113          6           0       24.108900   -0.955633   -1.998485
    114          6           0       24.009264    0.427177   -1.607219
    115          6           0       22.771871    0.572458   -0.936672
    116          6           0       25.113305   -1.683046   -2.817007
    117          6           0       24.650915    1.731337   -1.670380
    118          8           0       25.741101    2.006706   -2.203758
    119          6           0       23.640386    2.786276   -0.940081
    120          6           0       24.391951    3.294857    0.196423
    121          8           0       24.871258    2.589152    1.056767
    122          8           0       24.472849    4.630479    0.173218
    123          6           0       25.242510    5.402309    1.198720
    124          1           0       17.440508    2.012214    2.187452
    125          1           0       17.664913   -4.197568    0.807742
    126          1           0       23.136712   -3.540109   -2.224400
    127          1           0       21.566956    4.008960    1.146321
    128          1           0       18.698442    4.165436    0.610081
    129          1           0       20.238630    4.924167    2.744531
    130          1           0       19.533125    3.344049    3.286675
    131          1           0       18.468761    4.675199    2.805179
    132          1           0       19.742797    4.814750   -1.201349
    133          1           0       21.260119    4.186044   -1.673186
    134          1           0       21.020883    6.732450   -1.361263
    135          1           0       22.435922    5.802529   -1.037360
    136          1           0       14.826534    0.376055    2.685837
    137          1           0       16.173150    1.155395    3.624738
    138          1           0       15.513899   -0.328652    4.151390
    139          1           0       13.979284   -1.657493    2.691386
    140          1           0       14.394289   -2.455598    4.171612
    141          1           0       13.564277   -3.256800    2.767944
    142          1           0       18.946486   -5.507630   -0.813869
    143          1           0       21.867530   -5.589940   -0.930962
    144          1           0       19.874072   -5.712349    1.883683
    145          1           0       21.139472   -6.437090    0.957878
    146          1           0       19.498545   -7.040990    0.770886
    147          1           0       21.087456   -4.267530   -3.407549
    148          1           0       19.673373   -5.042900   -2.981268
    149          1           0       20.440878   -6.909807   -3.821696
    150          1           0       21.842352   -6.791671   -2.698082
    151          1           0       21.864553   -5.997650   -4.337394
    152          1           0       25.633978   -1.009786   -3.497132
    153          1           0       24.583677   -2.516629   -3.277870
    154          1           0       25.843536   -2.094104   -2.118605
    155          1           0       23.380068    3.616232   -1.595594
    156          1           0       26.241665    4.977189    1.295707
    157          1           0       24.773173    5.376785    2.182476
    158          1           0       25.257557    6.476811    1.018282
 ---------------------------------------------------------------------

 SCF Done:  E(RPBE1PBE) =  -4067.36858841     A.U. after   17 cycles

 Excitation energies and oscillator strengths:

 Excited State   1:      Singlet-A      1.7015 eV  728.68 nm  f=0.0000  <S**2>=0.000
     312 -> 313        0.70711
 This state for optimization and/or second-order correction.
 Total Energy, E(TD-HF/TD-DFT) =  -4067.30606009
 Copying the excited state density for this state as the 1-particle RhoCI density.

 Excited State   2:      Singlet-A      1.8204 eV  681.10 nm  f=0.3607  <S**2>=0.000
     309 -> 316       -0.15127
     311 -> 313        0.70060
     311 <- 313       -0.12604

 Excited State   3:      Singlet-A      1.8475 eV  671.08 nm  f=0.3923  <S**2>=0.000
     310 -> 315       -0.16133
     312 -> 314        0.69525
     312 <- 314       -0.11633

 Excited State   4:      Singlet-A      2.1438 eV  578.34 nm  f=0.0000  <S**2>=0.000
     311 -> 314        0.70711

 Excited State   5:      Singlet-A      2.2073 eV  561.70 nm  f=0.1233  <S**2>=0.000
     310 -> 314        0.66027
     312 -> 315        0.23229

 The electronic state is 1-A.
 Alpha  occ. eigenvalues --  -46.92358 -46.92024 -19.25831 -19.25409 -19.20066
 Alpha  occ. eigenvalues --  -19.19712 -19.19582 -19.19261 -19.18673 -19.17822
 Alpha  occ. eigenvalues --  -14.41697 -14.41363 -14.41263 -14.41115 -14.39436
 Alpha  occ. eigenvalues --  -14.39244 -14.39081 -14.38707 -10.36067 -10.35418
 Alpha  occ. eigenvalues --  -10.33078 -10.32878 -10.32644 -10.31256 -10.29707
 Alpha  occ. eigenvalues --  -10.29147 -10.29072 -10.28600 -10.28520 -10.28468
 Alpha  occ. eigenvalues --  -10.28404 -10.28347 -10.28315 -10.28243 -10.28021
 Alpha  occ. eigenvalues --  -10.27959 -10.27679 -10.27312 -10.27311 -10.26913
 Alpha  occ. eigenvalues --  -10.26885 -10.26743 -10.26674 -10.26422 -10.26224
 Alpha  occ. eigenvalues --  -10.26168 -10.26092 -10.26052 -10.26039 -10.26023
 Alpha  occ. eigenvalues --  -10.25892 -10.25808 -10.25799 -10.25761 -10.25678
 Alpha  occ. eigenvalues --  -10.25631 -10.25537 -10.25505 -10.25486 -10.25419
 Alpha  occ. eigenvalues --  -10.25275 -10.25152 -10.25059 -10.24692 -10.24620
 Alpha  occ. eigenvalues --  -10.24606 -10.24601 -10.24276 -10.24076 -10.24072
 Alpha  occ. eigenvalues --  -10.23929 -10.23901 -10.23611 -10.23514 -10.23513
 Alpha  occ. eigenvalues --  -10.23496 -10.23473 -10.23319 -10.23318 -10.23279
 Alpha  occ. eigenvalues --  -10.23213 -10.23183 -10.23106 -10.22959 -10.22897
 Alpha  occ. eigenvalues --  -10.22439  -3.14596  -3.14228  -1.87405  -1.87034
 Alpha  occ. eigenvalues --   -1.86966  -1.86842  -1.86609  -1.86462  -1.11269
 Alpha  occ. eigenvalues --   -1.11253  -1.05553  -1.04919  -1.03168  -1.02307
 Alpha  occ. eigenvalues --   -1.02126  -1.01744  -0.99697  -0.99339  -0.98632
 Alpha  occ. eigenvalues --   -0.98377  -0.98147  -0.97734  -0.97195  -0.96563
 Alpha  occ. eigenvalues --   -0.88005  -0.86489  -0.83780  -0.83159  -0.82927
 Alpha  occ. eigenvalues --   -0.82581  -0.82406  -0.82340  -0.81833  -0.81437
 Alpha  occ. eigenvalues --   -0.81268  -0.81191  -0.80750  -0.80571  -0.79018
 Alpha  occ. eigenvalues --   -0.78510  -0.78408  -0.78338  -0.77448  -0.76912
 Alpha  occ. eigenvalues --   -0.76398  -0.75985  -0.75595  -0.75504  -0.75133
 Alpha  occ. eigenvalues --   -0.75024  -0.72926  -0.72566  -0.71970  -0.71776
 Alpha  occ. eigenvalues --   -0.71635  -0.71167  -0.70582  -0.70555  -0.69858
 Alpha  occ. eigenvalues --   -0.69217  -0.67798  -0.66943  -0.65877  -0.65396
 Alpha  occ. eigenvalues --   -0.63679  -0.63163  -0.63069  -0.62590  -0.62228
 Alpha  occ. eigenvalues --   -0.62050  -0.61441  -0.61315  -0.60122  -0.59949
 Alpha  occ. eigenvalues --   -0.59621  -0.59579  -0.59533  -0.59211  -0.59013
 Alpha  occ. eigenvalues --   -0.59007  -0.56999  -0.56611  -0.55437  -0.55034
 Alpha  occ. eigenvalues --   -0.54380  -0.54003  -0.53730  -0.53424  -0.53347
 Alpha  occ. eigenvalues --   -0.53092  -0.52929  -0.52586  -0.52391  -0.51986
 Alpha  occ. eigenvalues --   -0.50672  -0.50432  -0.50176  -0.50174  -0.49746
 Alpha  occ. eigenvalues --   -0.49454  -0.49238  -0.48853  -0.48764  -0.48271
 Alpha  occ. eigenvalues --   -0.48112  -0.47963  -0.47874  -0.47558  -0.47399
 Alpha  occ. eigenvalues --   -0.47340  -0.47076  -0.47044  -0.47015  -0.46873
 Alpha  occ. eigenvalues --   -0.46684  -0.46485  -0.46046  -0.45894  -0.45799
 Alpha  occ. eigenvalues --   -0.45784  -0.45562  -0.45132  -0.45002  -0.44923
 Alpha  occ. eigenvalues --   -0.44738  -0.44579  -0.44515  -0.44434  -0.44381
 Alpha  occ. eigenvalues --   -0.44067  -0.43889  -0.43776  -0.43694  -0.43473
 Alpha  occ. eigenvalues --   -0.43364  -0.43197  -0.43067  -0.43020  -0.42834
 Alpha  occ. eigenvalues --   -0.42791  -0.42544  -0.42416  -0.42315  -0.42016
 Alpha  occ. eigenvalues --   -0.41980  -0.41436  -0.41288  -0.41275  -0.41082
 Alpha  occ. eigenvalues --   -0.40918  -0.40911  -0.40838  -0.40754  -0.40663
 Alpha  occ. eigenvalues --   -0.40121  -0.40026  -0.39951  -0.39876  -0.39666
 Alpha  occ. eigenvalues --   -0.39557  -0.39287  -0.39262  -0.39068  -0.38819
 Alpha  occ. eigenvalues --   -0.38654  -0.38522  -0.38422  -0.38172  -0.38149
 Alpha  occ. eigenvalues --   -0.37909  -0.37756  -0.37669  -0.37643  -0.37546
 Alpha  occ. eigenvalues --   -0.37366  -0.37234  -0.37065  -0.36882  -0.36561
 Alpha  occ. eigenvalues --   -0.36411  -0.36405  -0.36289  -0.36187  -0.36166
 Alpha  occ. eigenvalues --   -0.35905  -0.35731  -0.35548  -0.35440  -0.35186
 Alpha  occ. eigenvalues --   -0.34725  -0.34654  -0.34395  -0.34249  -0.34187
 Alpha  occ. eigenvalues --   -0.33582  -0.33339  -0.33139  -0.32911  -0.32796
 Alpha  occ. eigenvalues --   -0.32274  -0.31994  -0.31525  -0.31475  -0.31259
 Alpha  occ. eigenvalues --   -0.31191  -0.30712  -0.29863  -0.29646  -0.29118
 Alpha  occ. eigenvalues --   -0.28732  -0.28694  -0.28322  -0.27243  -0.26880
 Alpha  occ. eigenvalues --   -0.26454  -0.26300  -0.25831  -0.25774  -0.25562
 Alpha  occ. eigenvalues --   -0.25526  -0.25046  -0.24743  -0.21267  -0.20760
 Alpha  occ. eigenvalues --   -0.19334  -0.18598
 Alpha virt. eigenvalues --   -0.12026  -0.11136  -0.04706  -0.04452  -0.04044
 Alpha virt. eigenvalues --   -0.03957  -0.02324  -0.02264  -0.01047  -0.00993
 Alpha virt. eigenvalues --   -0.00498   0.00703   0.00905   0.01112   0.01426

 Mulliken charges:
               1
     1  Mg  12.000000
     2  C    6.000000
     3  C    6.000000
     4  C    6.000000
     5  C    6.000000
     6  N    7.000000
     7  C    6.000000
     8  C    6.000000
     9  C    6.000000
    10  C    6.000000
    11  C    6.000000
    12  C    6.000000
    13  C    6.000000
    14  H    1.000000
    15  N    7.000000
    16  C    6.000000
    17  C    6.000000
    18  C    6.000000
    19  C    6.000000
    20  C    6.000000
    21  C    6.000000
    22  O    8.000000
    23  C    6.000000
    24  N    7.000000
    25  C    6.000000
    26  C    6.000000
    27  C    6.000000
    28  C    6.000000
    29  C    6.000000
    30  C    6.000000
    31  C    6.000000
    32  N    7.000000
    33  C    6.000000
    34  C    6.000000
    35  C    6.000000
    36  C    6.000000
    37  C    6.000000
    38  C    6.000000
    39  O    8.000000
    40  C    6.000000
    41  C    6.000000
    42  O    8.000000
    43  O    8.000000
    44  C    6.000000
    45  H    1.000000
    46  H    1.000000
    47  H    1.000000
    48  H    1.000000
    49  H    1.000000
    50  H    1.000000
    51  H    1.000000
    52  H    1.000000
    53  H    1.000000
    54  H    1.000000
    55  H    1.000000
    56  H    1.000000
    57  H    1.000000
    58  H    1.000000
    59  H    1.000000
    60  H    1.000000
    61  H    1.000000
    62  H    1.000000
    63  H    1.000000
    64  H    1.000000
    65  H    1.000000
    66  H    1.000000
    67  H    1.000000
    68  H    1.000000
    69  H    1.000000
    70  H    1.000000
    71  H    1.000000
    72  H    1.000000
    73  H    1.000000
    74  H    1.000000
    75  H    1.000000
    76  H    1.000000
    77  H    1.000000
    78  H    1.000000
    79  H    1.000000
    80  Mg  12.000000
    81  C    6.000000
    82  C    6.000000
    83  C    6.000000
    84  C    6.000000
    85  N    7.000000
    86  C    6.000000
    87  C    6.000000
    88  C    6.000000
    89  C    6.000000
    90  C    6.000000
    91  C    6.000000
    92  C    6.000000
    93  H    1.000000
    94  N    7.000000
    95  C    6.000000
    96  C    6.000000
    97  C    6.000000
    98  C    6.000000
    99  C    6.000000
   100  C    6.000000
   101  O    8.000000
   102  C    6.000000
   103  N    7.000000
   104  C    6.000000
   105  C    6.000000
   106  C    6.000000
   107  C    6.000000
   108  C    6.000000
   109  C    6.000000
   110  C    6.000000
   111  N    7.000000
   112  C    6.000000
   113  C    6.000000
   114  C    6.000000
   115  C    6.000000
   116  C    6.000000
   117  C    6.000000
   118  O    8.000000
   119  C    6.000000
   120  C    6.000000
   121  O    8.000000
   122  O    8.000000
   123  C    6.000000
   124  H    1.000000
   125  H    1.000000
   126  H    1.000000
   127  H    1.000000
   128  H    1.000000
   129  H    1.000000
   130  H    1.000000
   131  H    1.000000
   132  H    1.000000
   133  H    1.000000
   134  H    1.000000
   135  H    1.000000
   136  H    1.000000
   137  H    1.000000
   138  H    1.000000
   139  H    1.000000
   140  H    1.000000
   141  H    1.000000
   142  H    1.000000
   143  H    1.000000
   144  H    1.000000
   145  H    1.000000
   146  H    1.000000
   147  H    1.000000
   148  H    1.000000
   149  H    1.000000
   150  H    1.000000
   151  H    1.000000
   152  H    1.000000
   153  H    1.000000
   154  H    1.000000
   155  H    1.000000
   156  H    1.000000
   157  H    1.000000
   158  H    1.000000
 Sum of Mulliken charges = 624.00000

 Dipole moment (field-independent basis, Debye):
    X=             -0.0000    Y=             -0.0000    Z=              0.0000  Tot=              0.0000
 Quadrupole moment (field-independent basis, Debye-Ang):
   XX=              0.0000   YY=             -0.0000   ZZ=              0.0000
   XY=              0.0000   XZ=             -0.0000   YZ=             -0.0000

 Normal termination of Gaussian 16 at Thu Oct 14 01:32:52 2021.
