 Gaussian 16, Revision A.03,
 Gaussian 16:  ES64L-G16RevA.03 25-Dec-2016

 --------------------------------------------------------
 #p PBE1PBE/Def2SVP td=(nstates=5) density=(transition=1)
 --------------------------------------------------------

 --------------------------------
 TDDFT excited states in gaussian
 --------------------------------
 Symbolic Z-matrix:
 Charge =  0 Multiplicity = 1

                         Standard orientation:
 ---------------------------------------------------------------------
 Center     Atomic      Atomic             Coordinates (Angstroms)
 Number     Number       Type             X           Y           Z
 ---------------------------------------------------------------------
      1         12           0       30.664730    0.559651   -0.188807
      2          6           0       28.745566   -2.311618   -0.368184
      3          6           0       27.912187    2.206560    1.329092
      4          6           0       32.654279    3.249104    0.553284
      5          6           0       33.466968   -1.176797   -1.218965
      6          7           0       28.548832    0.004815    0.271039
      7          6           0       28.031565   -1.271388    0.196838
      8          6           0       26.621044   -1.429381    0.878829
      9          6           0       26.203293    0.106227    1.056463
     10          6           0       27.612414    0.894114    0.841298
     11          6           0       25.054621    0.701852    0.156360
     12          6           0       26.618778   -2.169542    2.169978
     13          6           0       25.831020   -3.456140    2.325823
     14          1           0       25.325321   -3.769915    3.743064
     15          7           0       30.299649    2.518097    0.728962
     16          6           0       29.059698    2.965152    1.222972
     17          6           0       29.175479    4.323308    1.649876
     18          6           0       30.631958    4.611195    1.575639
     19          6           0       31.297694    3.431774    0.940866
     20          6           0       28.042055    5.117404    2.307514
     21          6           0       31.209190    5.947503    2.074201
     22          8           0       30.594552    6.876626    2.590027
     23          6           0       32.684699    6.021755    2.249317
     24          7           0       32.887281    0.944958   -0.148370
     25          6           0       33.369210    2.183380    0.023957
     26          6           0       34.889004    2.049789    0.108358
     27          6           0       35.231877    0.633755   -0.552474
     28          6           0       33.751224    0.061278   -0.693312
     29          6           0       35.565654    3.178674   -0.747289
     30          6           0       36.190085   -0.376727    0.202045
     31          6           0       37.545771   -0.741229   -0.384357
     32          7           0       31.051618   -1.377320   -0.785602
     33          6           0       32.249045   -1.952978   -1.221794
     34          6           0       32.053649   -3.346456   -1.482106
     35          6           0       30.679517   -3.573313   -1.161383
     36          6           0       30.130923   -2.285222   -0.786516
     37          6           0       33.052265   -4.356377   -1.952801
     38          6           0       29.624545   -4.500241   -1.129105
     39          8           0       29.654739   -5.678251   -1.424028
     40          6           0       28.358967   -3.761625   -0.544070
     41          6           0       27.190365   -4.110823   -1.366925
     42          8           0       26.324266   -4.899405   -1.005485
     43          8           0       27.245680   -3.445570   -2.582605
     44          6           0       26.119516   -3.786353   -3.480735
     45          1           0       27.127024    2.827597    1.764319
     46          1           0       33.195004    4.179155    0.742713
     47          1           0       34.372313   -1.717727   -1.501718
     48          1           0       25.935979   -1.913885    0.183966
     49          1           0       25.969071    0.240635    2.113092
     50          1           0       24.550428   -0.141063   -0.316172
     51          1           0       25.391519    1.410264   -0.600561
     52          1           0       24.395272    1.263880    0.816732
     53          1           0       26.169620   -1.500117    2.905166
     54          1           0       27.636847   -2.447714    2.440357
     55          1           0       26.500746   -4.283279    2.092243
     56          1           0       24.928222   -3.486368    1.716215
     57          1           0       27.081537    4.654733    2.533217
     58          1           0       27.955738    5.976596    1.642810
     59          1           0       28.530268    5.577066    3.166257
     60          1           0       33.310220    6.352469    1.421300
     61          1           0       33.094888    5.109524    2.682801
     62          1           0       32.857192    6.806211    2.987126
     63          1           0       35.262426    2.098071    1.131512
     64          1           0       35.559093    0.769990   -1.582643
     65          1           0       36.315660    3.647246   -0.110097
     66          1           0       34.889376    3.936242   -1.145324
     67          1           0       36.057890    2.801744   -1.644093
     68          1           0       35.584496   -1.276164    0.311084
     69          1           0       36.419575    0.109301    1.151328
     70          1           0       37.787981   -1.711975    0.048914
     71          1           0       38.287750   -0.026650   -0.027387
     72          1           0       37.660269   -0.861410   -1.461127
     73          1           0       32.508343   -5.298020   -2.031811
     74          1           0       33.865823   -4.366647   -1.228094
     75          1           0       33.481808   -4.162257   -2.935775
     76          1           0       28.220413   -4.229294    0.431292
     77          1           0       26.382670   -4.641344   -4.103414
     78          1           0       25.877811   -2.867772   -4.015375
     79          1           0       25.212301   -4.018061   -2.923451
     80         12           0      -30.176347   -0.474749    0.572370
     81          6           0      -30.142716    2.149060   -1.863997
     82          6           0      -29.546815   -2.741434   -1.929576
     83          6           0      -30.648079   -3.050492    2.705639
     84          6           0      -31.746703    1.799764    2.763701
     85          7           0      -29.873424   -0.283562   -1.622729
     86          6           0      -29.825448    0.870885   -2.419927
     87          6           0      -29.449411    0.483096   -3.827018
     88          6           0      -29.795126   -1.065365   -3.855715
     89          6           0      -29.800253   -1.401594   -2.335463
     90          6           0      -31.208196   -1.232113   -4.520009
     91          6           0      -27.993970    0.899289   -4.241521
     92          6           0      -27.989231    1.464279   -5.571954
     93          1           0      -26.640719    2.248743   -5.973025
     94          7           0      -29.914511   -2.582409    0.360630
     95          6           0      -29.621431   -3.299897   -0.730522
     96          6           0      -29.444145   -4.670743   -0.361521
     97          6           0      -29.772587   -4.806196    0.971014
     98          6           0      -30.100138   -3.391209    1.469473
     99          6           0      -29.158332   -5.785639   -1.417182
    100          6           0      -29.718940   -6.064218    1.862030
    101          8           0      -30.082569   -5.985427    3.008122
    102          6           0      -29.134674   -7.356161    1.341250
    103          7           0      -31.331468   -0.625648    2.369031
    104          6           0      -31.230106   -1.798629    3.108927
    105          6           0      -31.711224   -1.586760    4.507520
    106          6           0      -32.048117   -0.016651    4.542765
    107          6           0      -31.631011    0.447857    3.167248
    108          6           0      -32.825949   -2.501076    4.889204
    109          6           0      -31.373939    0.868771    5.728746
    110          6           0      -32.271208    1.555203    6.681143
    111          7           0      -30.791749    1.572213    0.546776
    112          6           0      -31.414037    2.313149    1.526064
    113          6           0      -31.550108    3.744557    1.010901
    114          6           0      -30.961836    3.754124   -0.269755
    115          6           0      -30.563170    2.395618   -0.526841
    116          6           0      -32.230610    4.884941    1.780300
    117          6           0      -30.779994    4.591107   -1.416865
    118          8           0      -31.040941    5.803660   -1.585470
    119          6           0      -30.400079    3.563653   -2.560666
    120          6           0      -29.213529    4.221191   -3.327510
    121          8           0      -28.041717    3.856334   -3.120193
    122          8           0      -29.688168    5.106380   -4.237963
    123          6           0      -28.529693    5.870864   -4.815546
    124          1           0      -29.131214   -3.435013   -2.664024
    125          1           0      -30.791384   -3.864461    3.420280
    126          1           0      -32.131654    2.597607    3.402021
    127          1           0      -30.186040    0.962698   -4.471181
    128          1           0      -29.065914   -1.631441   -4.434203
    129          1           0      -32.032107   -0.927696   -3.875038
    130          1           0      -31.319673   -2.263758   -4.851034
    131          1           0      -31.243770   -0.622878   -5.423451
    132          1           0      -27.436860   -0.029516   -4.366494
    133          1           0      -27.515537    1.521844   -3.485087
    134          1           0      -28.711038    2.276812   -5.656651
    135          1           0      -28.166478    0.648425   -6.273149
    136          1           0      -28.249974   -6.251910   -1.035738
    137          1           0      -28.949250   -5.422862   -2.423438
    138          1           0      -30.016412   -6.453552   -1.491432
    139          1           0      -29.256017   -8.153878    2.074154
    140          1           0      -28.111449   -6.994372    1.240625
    141          1           0      -29.624307   -7.592047    0.396457
    142          1           0      -30.817837   -1.793137    5.097196
    143          1           0      -33.128095    0.064805    4.663149
    144          1           0      -32.379936   -3.181713    5.613292
    145          1           0      -33.145821   -3.147505    4.072087
    146          1           0      -33.717024   -2.015787    5.288085
    147          1           0      -30.880813    1.659932    5.164018
    148          1           0      -30.609209    0.255471    6.203482
    149          1           0      -32.162844    2.637458    6.614753
    150          1           0      -31.761393    1.227184    7.586365
    151          1           0      -33.287988    1.160102    6.677180
    152          1           0      -33.263482    4.895892    1.434028
    153          1           0      -31.770711    5.853646    1.585073
    154          1           0      -32.124990    4.702276    2.849709
    155          1           0      -31.308186    3.519078   -3.160324
    156          1           0      -28.094246    6.616178   -4.150170
    157          1           0      -28.738274    6.369350   -5.761618
    158          1           0      -27.791109    5.116240   -5.086730
 ---------------------------------------------------------------------

 SCF Done:  E(RPBE1PBE) =  -4067.33132560     A.U. after   16 cycles

 Excitation energies and oscillator strengths:

 Excited State   1:      Singlet-A      1.5108 eV  820.68 nm  f=0.0000  <S**2>=0.000
     312 -> 313        0.70711
 This state for optimization and/or second-order correction.
 Total Energy, E(TD-HF/TD-DFT) =  -4067.27580633
 Copying the excited state density for this state as the 1-particle RhoCI density.

 Excited State   2:      Singlet-A      1.8312 eV  677.06 nm  f=0.3435  <S**2>=0.000
     310 -> 315       -0.18210
     312 -> 314        0.68924

 Excited State   3:      Singlet-A      1.8585 eV  667.13 nm  f=0.3615  <S**2>=0.000
     309 -> 316       -0.16978
     311 -> 313        0.69177
     311 <- 313       -0.10674

 Excited State   4:      Singlet-A      2.2731 eV  545.45 nm  f=0.0126  <S**2>=0.000
     310 -> 314        0.57939
     312 -> 315        0.39823

 Excited State   5:      Singlet-A      2.3635 eV  524.57 nm  f=0.0000  <S**2>=0.000
     310 -> 313        0.70711

 The electronic state is 1-A.
 Alpha  occ. eigenvalues --  -46.93870 -46.92805 -19.26843 -19.25834 -19.20152
 Alpha  occ. eigenvalues --  -19.20071 -19.19465 -19.19172 -19.19169 -19.18802
 Alpha  occ. eigenvalues --  -14.42964 -14.41719 -14.41557 -14.41493 -14.39641
 Alpha  occ. eigenvalues --  -14.39637 -14.38920 -14.38917 -10.36788 -10.36211
 Alpha  occ. eigenvalues --  -10.32598 -10.32251 -10.32212 -10.31545 -10.30687
 Alpha  occ. eigenvalues --  -10.29555 -10.29518 -10.29254 -10.28901 -10.28882
 Alpha  occ. eigenvalues --  -10.28845 -10.28794 -10.28783 -10.28777 -10.28604
 Alpha  occ. eigenvalues --  -10.28454 -10.28216 -10.27818 -10.27242 -10.27223
 Alpha  occ. eigenvalues --  -10.27197 -10.27016 -10.26706 -10.26657 -10.26520
 Alpha  occ. eigenvalues --  -10.26498 -10.26477 -10.26303 -10.26299 -10.26289
 Alpha  occ. eigenvalues --  -10.26225 -10.26201 -10.26106 -10.26084 -10.25881
 Alpha  occ. eigenvalues --  -10.25782 -10.25685 -10.25628 -10.25547 -10.25294
 Alpha  occ. eigenvalues --  -10.25261 -10.25258 -10.25225 -10.25145 -10.25128
 Alpha  occ. eigenvalues --  -10.24787 -10.24750 -10.24391 -10.24161 -10.24135
 Alpha  occ. eigenvalues --  -10.24079 -10.24036 -10.23840 -10.23778 -10.23701
 Alpha  occ. eigenvalues --  -10.23674 -10.23674 -10.23593 -10.23582 -10.23399
 Alpha  occ. eigenvalues --  -10.22968 -10.22912 -10.22792 -10.22715 -10.22639
 Alpha  occ. eigenvalues --  -10.22506  -3.15672  -3.14727  -1.88539  -1.88020
 Alpha  occ. eigenvalues --   -1.87895  -1.87562  -1.87088  -1.86950  -1.10855
 Alpha  occ. eigenvalues --   -1.10354  -1.06266  -1.04766  -1.04640  -1.02731
 Alpha  occ. eigenvalues --   -1.02385  -1.01976  -0.99682  -0.98777  -0.98565
 Alpha  occ. eigenvalues --   -0.97577  -0.97364  -0.97062  -0.96268  -0.96250
 Alpha  occ. eigenvalues --   -0.87054  -0.85679  -0.83783  -0.83643  -0.83191
 Alpha  occ. eigenvalues --   -0.82924  -0.82498  -0.82492  -0.82026  -0.81722
 Alpha  occ. eigenvalues --   -0.81588  -0.81506  -0.79958  -0.79939  -0.78730
 Alpha  occ. eigenvalues --   -0.78679  -0.78224  -0.78145  -0.77160  -0.76861
 Alpha  occ. eigenvalues --   -0.76537  -0.76382  -0.75273  -0.75127  -0.75048
 Alpha  occ. eigenvalues --   -0.74791  -0.72369  -0.72265  -0.71862  -0.71489
 Alpha  occ. eigenvalues --   -0.71194  -0.70916  -0.70527  -0.69873  -0.69817
 Alpha  occ. eigenvalues --   -0.69233  -0.68033  -0.66744  -0.66594  -0.65961
 Alpha  occ. eigenvalues --   -0.63786  -0.63564  -0.63133  -0.62427  -0.62335
 Alpha  occ. eigenvalues --   -0.61864  -0.61544  -0.60714  -0.60083  -0.59905
 Alpha  occ. eigenvalues --   -0.59776  -0.59519  -0.59355  -0.59329  -0.59005
 Alpha  occ. eigenvalues --   -0.58813  -0.57612  -0.56689  -0.54825  -0.54401
 Alpha  occ. eigenvalues --   -0.54398  -0.54031  -0.53694  -0.53691  -0.53017
 Alpha  occ. eigenvalues --   -0.52835  -0.52461  -0.52034  -0.51554  -0.51511
 Alpha  occ. eigenvalues --   -0.51155  -0.50518  -0.50509  -0.50031  -0.50029
 Alpha  occ. eigenvalues --   -0.49663  -0.49359  -0.48912  -0.48577  -0.48518
 Alpha  occ. eigenvalues --   -0.48301  -0.48113  -0.48063  -0.47833  -0.47594
 Alpha  occ. eigenvalues --   -0.47404  -0.47344  -0.47339  -0.47159  -0.47040
 Alpha  occ. eigenvalues --   -0.47037  -0.46714  -0.46486  -0.46148  -0.45963
 Alpha  occ. eigenvalues --   -0.45695  -0.45613  -0.45211  -0.45050  -0.44982
 Alpha  occ. eigenvalues --   -0.44892  -0.44820  -0.44531  -0.44324  -0.44188
 Alpha  occ. eigenvalues --   -0.44012  -0.43834  -0.43655  -0.43550  -0.43428
 Alpha  occ. eigenvalues --   -0.43362  -0.43309  -0.42976  -0.42838  -0.42684
 Alpha  occ. eigenvalues --   -0.42576  -0.42491  -0.42354  -0.42145  -0.41941
 Alpha  occ. eigenvalues --   -0.41776  -0.41465  -0.41350  -0.41347  -0.41219
 Alpha  occ. eigenvalues --   -0.40998  -0.40922  -0.40818  -0.40770  -0.40522
 Alpha  occ. eigenvalues --   -0.40515  -0.40375  -0.40176  -0.40167  -0.39984
 Alpha  occ. eigenvalues --   -0.39494  -0.39458  -0.39326  -0.39273  -0.39094
 Alpha  occ. eigenvalues --   -0.39039  -0.38783  -0.38689  -0.38504  -0.38486
 Alpha  occ. eigenvalues --   -0.38283  -0.37820  -0.37793  -0.37792  -0.37619
 Alpha  occ. eigenvalues --   -0.37551  -0.37297  -0.37266  -0.37049  -0.36868
 Alpha  occ. eigenvalues --   -0.36830  -0.36438  -0.36404  -0.36402  -0.36048
 Alpha  occ. eigenvalues --   -0.36046  -0.35679  -0.35324  -0.35115  -0.34966
 Alpha  occ. eigenvalues --   -0.34700  -0.34678  -0.34420  -0.33745  -0.33468
 Alpha  occ. eigenvalues --   -0.33386  -0.32960  -0.32886  -0.32467  -0.32270
 Alpha  occ. eigenvalues --   -0.32221  -0.32095  -0.31976  -0.31795  -0.31167
 Alpha  occ. eigenvalues --   -0.30946  -0.29933  -0.29792  -0.29371  -0.29286
 Alpha  occ. eigenvalues --   -0.28981  -0.28779  -0.28369  -0.27449  -0.27110
 Alpha  occ. eigenvalues --   -0.26119  -0.25997  -0.25958  -0.25827  -0.25572
 Alpha  occ. eigenvalues --   -0.25481  -0.25080  -0.25039  -0.21591  -0.21060
 Alpha  occ. eigenvalues --   -0.19777  -0.17925
 Alpha virt. eigenvalues --   -0.12157  -0.10263  -0.05881  -0.05876  -0.04239
 Alpha virt. eigenvalues --   -0.04153  -0.02243  -0.01976  -0.00910  -0.00412
 Alpha virt. eigenvalues --    0.00356   0.00472   0.00607   0.01024   0.01671

 Mulliken charges:
               1
     1  Mg  12.000000
     2  C    6.000000
     3  C    6.000000
     4  C    6.000000
     5  C    6.000000
     6  N    7.000000
     7  C    6.000000
     8  C    6.000000
     9  C    6.000000
    10  C    6.000000
    11  C    6.000000
    12  C    6.000000
    13  C    6.000000
    14  H    1.000000
    15  N    7.000000
    16  C    6.000000
    17  C    6.000000
    18  C    6.000000
    19  C    6.000000
    20  C    6.000000
    21  C    6.000000
    22  O    8.000000
    23  C    6.000000
    24  N    7.000000
    25  C    6.000000
    26  C    6.000000
    27  C    6.000000
    28  C    6.000000
    29  C    6.000000
    30  C    6.000000
    31  C    6.000000
    32  N    7.000000
    33  C    6.000000
    34  C    6.000000
    35  C    6.000000
    36  C    6.000000
    37  C    6.000000
    38  C    6.000000
    39  O    8.000000
    40  C    6.000000
    41  C    6.000000
    42  O    8.000000
    43  O    8.000000
    44  C    6.000000
    45  H    1.000000
    46  H    1.000000
    47  H    1.000000
    48  H    1.000000
    49  H    1.000000
    50  H    1.000000
    51  H    1.000000
    52  H    1.000000
    53  H    1.000000
    54  H    1.000000
    55  H    1.000000
    56  H    1.000000
    57  H    1.000000
    58  H    1.000000
    59  H    1.000000
    60  H    1.000000
    61  H    1.000000
    62  H    1.000000
    63  H    1.000000
    64  H    1.000000
    65  H    1.000000
    66  H    1.000000
    67  H    1.000000
    68  H    1.000000
    69  H    1.000000
    70  H    1.000000
    71  H    1.000000
    72  H    1.000000
    73  H    1.000000
    74  H    1.000000
    75  H    1.000000
    76  H    1.000000
    77  H    1.000000
    78  H    1.000000
    79  H    1.000000
    80  Mg  12.000000
    81  C    6.000000
    82  C    6.000000
    83  C    6.000000
    84  C    6.000000
    85  N    7.000000
    86  C    6.000000
    87  C    6.000000
    88  C    6.000000
    89  C    6.000000
    90  C    6.000000
    91  C    6.000000
    92  C    6.000000
    93  H    1.000000
    94  N    7.000000
    95  C    6.000000
    96  C    6.000000
    97  C    6.000000
    98  C    6.000000
    99  C    6.000000
   100  C    6.000000
   101  O    8.000000
   102  C    6.000000
   103  N    7.000000
   104  C    6.000000
   105  C    6.000000
   106  C    6.000000
   107  C    6.000000
   108  C    6.000000
   109  C    6.000000
   110  C    6.000000
   111  N    7.000000
   112  C    6.000000
   113  C    6.000000
   114  C    6.000000
   115  C    6.000000
   116  C    6.000000
   117  C    6.000000
   118  O    8.000000
   119  C    6.000000
   120  C    6.000000
   121  O    8.000000
   122  O    8.000000
   123  C    6.000000
   124  H    1.000000
   125  H    1.000000
   126  H    1.000000
   127  H    1.000000
   128  H    1.000000
   129  H    1.000000
   130  H    1.000000
   131  H    1.000000
   132  H    1.000000
   133  H    1.000000
   134  H    1.000000
   135  H    1.000000
   136  H    1.000000
   137  H    1.000000
   138  H    1.000000
   139  H    1.000000
   140  H    1.000000
   141  H    1.000000
   142  H    1.000000
   143  H    1.000000
   144  H    1.000000
   145  H    1.000000
   146  H    1.000000
   147  H    1.000000
   148  H    1.000000
   149  H    1.000000
   150  H    1.000000
   151  H    1.000000
   152  H    1.000000
   153  H    1.000000
   154  H    1.000000
   155  H    1.000000
   156  H    1.000000
   157  H    1.000000
   158  H    1.000000
 Sum of Mulliken charges = 624.00000

 Dipole moment (field-independent basis, Debye):
    X=             -0.0000    Y=              0.0000    Z=              0.0000  Tot=              0.0000
 Quadrupole moment (field-independent basis, Debye-Ang):
   XX=              0.0000   YY=             -0.0000   ZZ=              0.0000
   XY=             -0.0000   XZ=             -0.0000   YZ=              0.0000

 Normal termination of Gaussian 16 at Fri Oct 15 08:00:28 2021.
