 Gaussian 16, Revision A.03,
 Gaussian 16:  ES64L-G16RevA.03 25-Dec-2016

 --------------------------------------------------------
 #p PBE1PBE/Def2SVP td=(nstates=5) density=(transition=1)
 --------------------------------------------------------

 --------------------------------
 TDDFT excited states in gaussian
 --------------------------------
 Symbolic Z-matrix:
 Charge =  0 Multiplicity = 1

                         Standard orientation:
 ---------------------------------------------------------------------
 Center     Atomic      Atomic             Coordinates (Angstroms)
 Number     Number       Type             X           Y           Z
 ---------------------------------------------------------------------
      1         12           0       24.790942    0.390115   -0.344132
      2          6           0       22.737851   -1.590134    2.038503
      3          6           0       23.282382    3.056304    1.084013
      4          6           0       26.366127    1.954415   -2.606737
      5          6           0       25.420599   -2.699933   -1.996117
      6          7           0       23.171852    0.653998    1.315205
      7          6           0       22.658818   -0.256317    2.223661
      8          6           0       21.919195    0.373100    3.409753
      9          6           0       21.722557    1.807562    2.829237
     10          6           0       22.775444    1.885408    1.656897
     11          6           0       20.339632    2.117126    2.349036
     12          6           0       22.613057    0.291664    4.810764
     13          6           0       21.744258    0.230499    6.022444
     14          1           0       22.266845    0.988408    7.238704
     15          7           0       24.873115    2.309191   -0.710301
     16          6           0       24.217868    3.315091    0.030398
     17          6           0       24.707682    4.582744   -0.428953
     18          6           0       25.733802    4.226672   -1.408216
     19          6           0       25.672724    2.820163   -1.580936
     20          6           0       24.317116    5.979076    0.182244
     21          6           0       26.651350    5.195418   -2.089359
     22          8           0       27.470092    4.831984   -2.968554
     23          6           0       26.706074    6.640316   -1.750435
     24          7           0       25.628632   -0.201323   -2.143716
     25          6           0       26.271065    0.655827   -2.939658
     26          6           0       26.943555   -0.013874   -4.180755
     27          6           0       26.978356   -1.498857   -3.659623
     28          6           0       25.900782   -1.497860   -2.540980
     29          6           0       26.073393    0.124388   -5.471298
     30          6           0       28.390788   -1.892254   -3.053830
     31          6           0       29.663560   -1.685697   -3.901641
     32          7           0       24.256832   -1.720769   -0.045268
     33          6           0       24.660455   -2.830912   -0.778344
     34          6           0       24.064713   -4.022663   -0.221083
     35          6           0       23.341493   -3.588523    0.897164
     36          6           0       23.406398   -2.168400    0.929019
     37          6           0       24.305817   -5.430173   -0.652499
     38          6           0       22.516958   -4.047444    2.007314
     39          8           0       22.174170   -5.150439    2.412106
     40          6           0       22.193622   -2.691758    2.825218
     41          6           0       20.753721   -2.686571    3.018533
     42          8           0       19.883349   -2.638826    2.135101
     43          8           0       20.501098   -3.179805    4.266499
     44          6           0       19.148826   -3.344144    4.694068
     45          1           0       22.872840    3.871300    1.684736
     46          1           0       26.922680    2.452303   -3.403253
     47          1           0       25.662308   -3.617488   -2.537311
     48          1           0       20.947330   -0.116404    3.476215
     49          1           0       22.078196    2.557689    3.534968
     50          1           0       20.375000    2.117699    1.259591
     51          1           0       20.063383    3.126898    2.652254
     52          1           0       19.541607    1.439379    2.651578
     53          1           0       23.199354    1.203129    4.923795
     54          1           0       23.315853   -0.540315    4.775121
     55          1           0       21.708837   -0.833656    6.254858
     56          1           0       20.693335    0.408804    5.794281
     57          1           0       25.081493    6.453482    0.796975
     58          1           0       23.371628    5.926297    0.721363
     59          1           0       24.132813    6.560428   -0.722027
     60          1           0       25.830471    7.125380   -2.182626
     61          1           0       27.619152    7.015080   -2.213774
     62          1           0       26.791442    6.699739   -0.665917
     63          1           0       27.910001    0.478126   -4.295460
     64          1           0       26.696350   -2.260894   -4.385539
     65          1           0       26.624952    0.781513   -6.144123
     66          1           0       25.049108    0.464049   -5.321228
     67          1           0       26.094004   -0.896343   -5.855746
     68          1           0       28.390476   -2.962602   -2.849166
     69          1           0       28.447666   -1.401359   -2.082453
     70          1           0       30.284206   -1.016332   -3.306139
     71          1           0       29.307649   -1.161949   -4.789301
     72          1           0       30.197328   -2.616845   -4.091197
     73          1           0       25.175992   -5.364825   -1.306069
     74          1           0       23.419850   -5.727780   -1.213315
     75          1           0       24.421146   -6.134889    0.170996
     76          1           0       22.714445   -2.711057    3.782370
     77          1           0       18.441058   -3.005060    3.937316
     78          1           0       19.046811   -2.691890    5.561486
     79          1           0       18.969533   -4.353886    5.060605
     80         12           0      -24.255626    0.577157    0.465760
     81          6           0      -23.728765   -2.635243   -0.745003
     82          6           0      -20.892835    1.352913   -0.339472
     83          6           0      -24.990006    3.836393    0.512846
     84          6           0      -27.701931   -0.159798    0.558216
     85          7           0      -22.566064   -0.470628   -0.799001
     86          6           0      -22.566300   -1.839847   -0.915500
     87          6           0      -21.250202   -2.348544   -1.414185
     88          6           0      -20.277663   -1.137217   -1.041042
     89          6           0      -21.273669    0.034078   -0.725098
     90          6           0      -19.250363   -1.405259    0.171181
     91          6           0      -21.361112   -2.792510   -2.962744
     92          6           0      -20.406399   -3.794894   -3.375010
     93          1           0      -19.552630   -3.373353   -4.589707
     94          7           0      -23.102798    2.345010    0.318853
     95          6           0      -21.723479    2.453609   -0.013877
     96          6           0      -21.368054    3.861195    0.049882
     97          6           0      -22.533810    4.619000    0.318452
     98          6           0      -23.611502    3.586501    0.483500
     99          6           0      -20.012314    4.346928   -0.305284
    100          6           0      -22.580528    6.203808    0.357662
    101          8           0      -21.521264    6.796304    0.157921
    102          6           0      -23.774905    6.963914    0.924034
    103          7           0      -26.092832    1.622918    0.424743
    104          6           0      -26.081103    2.971458    0.576940
    105          6           0      -27.595588    3.632056    0.539842
    106          6           0      -28.471882    2.309796    0.775067
    107          6           0      -27.418962    1.168374    0.611706
    108          6           0      -27.903285    4.707776    1.649246
    109          6           0      -29.618487    2.162264   -0.226909
    110          6           0      -31.085896    2.066169    0.255078
    111          7           0      -25.430356   -1.111513    0.286201
    112          6           0      -26.783638   -1.256201    0.386625
    113          6           0      -27.114841   -2.651785    0.300058
    114          6           0      -25.889988   -3.220815   -0.215520
    115          6           0      -24.925577   -2.198791   -0.233150
    116          6           0      -28.486635   -3.252851    0.405662
    117          6           0      -25.322036   -4.431983   -0.769890
    118          8           0      -25.754546   -5.544199   -0.787225
    119          6           0      -23.807557   -4.149749   -1.113365
    120          6           0      -22.793101   -4.942726   -0.260195
    121          8           0      -22.814899   -5.010664    0.949959
    122          8           0      -21.912606   -5.647454   -1.106745
    123          6           0      -21.016618   -6.571612   -0.479765
    124          1           0      -19.831727    1.508919   -0.540972
    125          1           0      -25.312272    4.857651    0.300033
    126          1           0      -28.775935   -0.345417    0.617541
    127          1           0      -20.834638   -3.125539   -0.771723
    128          1           0      -19.702100   -0.882107   -1.931575
    129          1           0      -18.259122   -1.276926   -0.263457
    130          1           0      -19.363686   -2.395036    0.612366
    131          1           0      -19.437498   -0.622128    0.906453
    132          1           0      -21.156058   -1.868039   -3.502308
    133          1           0      -22.423592   -3.026715   -3.034250
    134          1           0      -20.989382   -4.681818   -3.620283
    135          1           0      -19.697342   -3.989309   -2.570357
    136          1           0      -19.293357    3.529591   -0.358631
    137          1           0      -19.627220    4.987426    0.488560
    138          1           0      -20.010619    4.841527   -1.276892
    139          1           0      -24.684097    6.858782    0.331235
    140          1           0      -23.486319    8.012637    1.001992
    141          1           0      -23.936371    6.600434    1.938943
    142          1           0      -27.690497    3.974143   -0.490361
    143          1           0      -28.819678    2.165067    1.798135
    144          1           0      -28.038215    5.684764    1.186060
    145          1           0      -27.065482    4.760724    2.345536
    146          1           0      -28.817805    4.386099    2.148678
    147          1           0      -29.435943    1.349331   -0.929336
    148          1           0      -29.662537    2.942565   -0.986535
    149          1           0      -31.592994    1.108100    0.137620
    150          1           0      -31.634338    2.759812   -0.382695
    151          1           0      -31.174812    2.335701    1.308165
    152          1           0      -28.352603   -4.316343    0.604998
    153          1           0      -29.004906   -3.391326   -0.542669
    154          1           0      -29.164169   -2.739720    1.087607
    155          1           0      -23.727853   -4.487861   -2.146909
    156          1           0      -20.199357   -6.564804   -1.201702
    157          1           0      -21.392499   -7.593964   -0.515854
    158          1           0      -20.799136   -6.269628    0.543957
 ---------------------------------------------------------------------

 SCF Done:  E(RPBE1PBE) =  -4067.34457318     A.U. after   16 cycles

 Excitation energies and oscillator strengths:

 Excited State   1:      Singlet-A      1.7761 eV  698.06 nm  f=0.0000  <S**2>=0.000
     312 -> 313        0.70711
 This state for optimization and/or second-order correction.
 Total Energy, E(TD-HF/TD-DFT) =  -4067.27930179
 Copying the excited state density for this state as the 1-particle RhoCI density.

 Excited State   2:      Singlet-A      1.8203 eV  681.11 nm  f=0.3489  <S**2>=0.000
     309 -> 316       -0.15132
     311 -> 313        0.70043
     311 <- 313       -0.12600

 Excited State   3:      Singlet-A      1.8323 eV  676.66 nm  f=0.3949  <S**2>=0.000
     310 -> 315        0.16916
     312 -> 314        0.69519
     312 <- 314       -0.11104

 Excited State   4:      Singlet-A      2.1118 eV  587.11 nm  f=0.0000  <S**2>=0.000
     311 -> 314        0.70711

 Excited State   5:      Singlet-A      2.2474 eV  551.67 nm  f=0.1028  <S**2>=0.000
     310 -> 314        0.64692
     312 -> 315       -0.27104

 The electronic state is 1-A.
 Alpha  occ. eigenvalues --  -46.93186 -46.92331 -19.25817 -19.25377 -19.20967
 Alpha  occ. eigenvalues --  -19.20037 -19.19737 -19.19551 -19.18628 -19.17797
 Alpha  occ. eigenvalues --  -14.41705 -14.41670 -14.41650 -14.41088 -14.39743
 Alpha  occ. eigenvalues --  -14.39410 -14.39217 -14.38830 -10.37144 -10.36036
 Alpha  occ. eigenvalues --  -10.33398 -10.33049 -10.31302 -10.31231 -10.29393
 Alpha  occ. eigenvalues --  -10.29183 -10.29120 -10.28698 -10.28572 -10.28541
 Alpha  occ. eigenvalues --  -10.28461 -10.28441 -10.28414 -10.28404 -10.28376
 Alpha  occ. eigenvalues --  -10.28320 -10.28282 -10.27995 -10.27659 -10.27653
 Alpha  occ. eigenvalues --  -10.27097 -10.26859 -10.26715 -10.26554 -10.26393
 Alpha  occ. eigenvalues --  -10.26251 -10.26236 -10.26064 -10.26032 -10.26026
 Alpha  occ. eigenvalues --  -10.26014 -10.25967 -10.25864 -10.25770 -10.25734
 Alpha  occ. eigenvalues --  -10.25682 -10.25631 -10.25593 -10.25508 -10.25486
 Alpha  occ. eigenvalues --  -10.25459 -10.25339 -10.25250 -10.25125 -10.25032
 Alpha  occ. eigenvalues --  -10.24594 -10.24573 -10.24298 -10.24230 -10.24208
 Alpha  occ. eigenvalues --  -10.24133 -10.24128 -10.24122 -10.24052 -10.23907
 Alpha  occ. eigenvalues --  -10.23583 -10.23489 -10.23469 -10.23343 -10.23336
 Alpha  occ. eigenvalues --  -10.23185 -10.23153 -10.23082 -10.22873 -10.22699
 Alpha  occ. eigenvalues --  -10.22614  -3.15186  -3.14569  -1.87973  -1.87615
 Alpha  occ. eigenvalues --   -1.87378  -1.87375  -1.86939  -1.86815  -1.11222
 Alpha  occ. eigenvalues --   -1.10858  -1.05715  -1.04891  -1.04862  -1.03590
 Alpha  occ. eigenvalues --   -1.02282  -1.01713  -0.99814  -0.99671  -0.98605
 Alpha  occ. eigenvalues --   -0.98350  -0.97397  -0.97168  -0.96940  -0.96175
 Alpha  occ. eigenvalues --   -0.87977  -0.86687  -0.83752  -0.83522  -0.83133
 Alpha  occ. eigenvalues --   -0.82604  -0.82423  -0.82380  -0.81807  -0.81180
 Alpha  occ. eigenvalues --   -0.81164  -0.80803  -0.80544  -0.80081  -0.78990
 Alpha  occ. eigenvalues --   -0.78310  -0.78308  -0.77672  -0.77422  -0.76906
 Alpha  occ. eigenvalues --   -0.76371  -0.76364  -0.75484  -0.75476  -0.75108
 Alpha  occ. eigenvalues --   -0.74626  -0.72900  -0.72221  -0.71748  -0.71608
 Alpha  occ. eigenvalues --   -0.71577  -0.71020  -0.70553  -0.70487  -0.69832
 Alpha  occ. eigenvalues --   -0.69271  -0.67771  -0.67149  -0.65779  -0.65369
 Alpha  occ. eigenvalues --   -0.63653  -0.63613  -0.63042  -0.62932  -0.62562
 Alpha  occ. eigenvalues --   -0.61857  -0.61414  -0.60835  -0.60313  -0.60093
 Alpha  occ. eigenvalues --   -0.59595  -0.59505  -0.59340  -0.58980  -0.58876
 Alpha  occ. eigenvalues --   -0.58699  -0.57421  -0.56582  -0.55412  -0.54353
 Alpha  occ. eigenvalues --   -0.54226  -0.54073  -0.53975  -0.53547  -0.53320
 Alpha  occ. eigenvalues --   -0.53064  -0.52901  -0.52627  -0.52364  -0.52039
 Alpha  occ. eigenvalues --   -0.50841  -0.50404  -0.50146  -0.49956  -0.49566
 Alpha  occ. eigenvalues --   -0.49426  -0.49259  -0.49210  -0.48739  -0.48610
 Alpha  occ. eigenvalues --   -0.48243  -0.47856  -0.47846  -0.47340  -0.47313
 Alpha  occ. eigenvalues --   -0.47134  -0.47049  -0.47017  -0.46951  -0.46589
 Alpha  occ. eigenvalues --   -0.46458  -0.46303  -0.46189  -0.46019  -0.45773
 Alpha  occ. eigenvalues --   -0.45656  -0.45534  -0.45469  -0.44897  -0.44772
 Alpha  occ. eigenvalues --   -0.44551  -0.44490  -0.44406  -0.44355  -0.44278
 Alpha  occ. eigenvalues --   -0.44179  -0.44039  -0.43897  -0.43863  -0.43833
 Alpha  occ. eigenvalues --   -0.43447  -0.43418  -0.43128  -0.42992  -0.42807
 Alpha  occ. eigenvalues --   -0.42689  -0.42529  -0.42518  -0.42290  -0.42057
 Alpha  occ. eigenvalues --   -0.41954  -0.41676  -0.41565  -0.41260  -0.41140
 Alpha  occ. eigenvalues --   -0.41054  -0.40891  -0.40870  -0.40727  -0.40618
 Alpha  occ. eigenvalues --   -0.40400  -0.40093  -0.39962  -0.39925  -0.39741
 Alpha  occ. eigenvalues --   -0.39637  -0.39558  -0.39528  -0.39339  -0.39262
 Alpha  occ. eigenvalues --   -0.38834  -0.38792  -0.38673  -0.38495  -0.38448
 Alpha  occ. eigenvalues --   -0.38226  -0.38146  -0.37920  -0.37882  -0.37643
 Alpha  occ. eigenvalues --   -0.37563  -0.37519  -0.37465  -0.37314  -0.37050
 Alpha  occ. eigenvalues --   -0.37039  -0.36854  -0.36382  -0.36379  -0.36137
 Alpha  occ. eigenvalues --   -0.35963  -0.35882  -0.35706  -0.35523  -0.35340
 Alpha  occ. eigenvalues --   -0.34779  -0.34699  -0.34368  -0.34221  -0.33611
 Alpha  occ. eigenvalues --   -0.33557  -0.33149  -0.33112  -0.32769  -0.32751
 Alpha  occ. eigenvalues --   -0.32247  -0.32078  -0.31637  -0.31498  -0.31252
 Alpha  occ. eigenvalues --   -0.30688  -0.30681  -0.29836  -0.29775  -0.29410
 Alpha  occ. eigenvalues --   -0.29089  -0.28880  -0.28666  -0.27216  -0.26893
 Alpha  occ. eigenvalues --   -0.26272  -0.26193  -0.25748  -0.25591  -0.25499
 Alpha  occ. eigenvalues --   -0.25099  -0.24966  -0.24718  -0.21241  -0.21203
 Alpha  occ. eigenvalues --   -0.19307  -0.18798
 Alpha virt. eigenvalues --   -0.11999  -0.11273  -0.05156  -0.04425  -0.03930
 Alpha virt. eigenvalues --   -0.03769  -0.02319  -0.02237  -0.01446  -0.01023
 Alpha virt. eigenvalues --   -0.00468  -0.00123   0.00383   0.00933   0.01523

 Mulliken charges:
               1
     1  Mg  12.000000
     2  C    6.000000
     3  C    6.000000
     4  C    6.000000
     5  C    6.000000
     6  N    7.000000
     7  C    6.000000
     8  C    6.000000
     9  C    6.000000
    10  C    6.000000
    11  C    6.000000
    12  C    6.000000
    13  C    6.000000
    14  H    1.000000
    15  N    7.000000
    16  C    6.000000
    17  C    6.000000
    18  C    6.000000
    19  C    6.000000
    20  C    6.000000
    21  C    6.000000
    22  O    8.000000
    23  C    6.000000
    24  N    7.000000
    25  C    6.000000
    26  C    6.000000
    27  C    6.000000
    28  C    6.000000
    29  C    6.000000
    30  C    6.000000
    31  C    6.000000
    32  N    7.000000
    33  C    6.000000
    34  C    6.000000
    35  C    6.000000
    36  C    6.000000
    37  C    6.000000
    38  C    6.000000
    39  O    8.000000
    40  C    6.000000
    41  C    6.000000
    42  O    8.000000
    43  O    8.000000
    44  C    6.000000
    45  H    1.000000
    46  H    1.000000
    47  H    1.000000
    48  H    1.000000
    49  H    1.000000
    50  H    1.000000
    51  H    1.000000
    52  H    1.000000
    53  H    1.000000
    54  H    1.000000
    55  H    1.000000
    56  H    1.000000
    57  H    1.000000
    58  H    1.000000
    59  H    1.000000
    60  H    1.000000
    61  H    1.000000
    62  H    1.000000
    63  H    1.000000
    64  H    1.000000
    65  H    1.000000
    66  H    1.000000
    67  H    1.000000
    68  H    1.000000
    69  H    1.000000
    70  H    1.000000
    71  H    1.000000
    72  H    1.000000
    73  H    1.000000
    74  H    1.000000
    75  H    1.000000
    76  H    1.000000
    77  H    1.000000
    78  H    1.000000
    79  H    1.000000
    80  Mg  12.000000
    81  C    6.000000
    82  C    6.000000
    83  C    6.000000
    84  C    6.000000
    85  N    7.000000
    86  C    6.000000
    87  C    6.000000
    88  C    6.000000
    89  C    6.000000
    90  C    6.000000
    91  C    6.000000
    92  C    6.000000
    93  H    1.000000
    94  N    7.000000
    95  C    6.000000
    96  C    6.000000
    97  C    6.000000
    98  C    6.000000
    99  C    6.000000
   100  C    6.000000
   101  O    8.000000
   102  C    6.000000
   103  N    7.000000
   104  C    6.000000
   105  C    6.000000
   106  C    6.000000
   107  C    6.000000
   108  C    6.000000
   109  C    6.000000
   110  C    6.000000
   111  N    7.000000
   112  C    6.000000
   113  C    6.000000
   114  C    6.000000
   115  C    6.000000
   116  C    6.000000
   117  C    6.000000
   118  O    8.000000
   119  C    6.000000
   120  C    6.000000
   121  O    8.000000
   122  O    8.000000
   123  C    6.000000
   124  H    1.000000
   125  H    1.000000
   126  H    1.000000
   127  H    1.000000
   128  H    1.000000
   129  H    1.000000
   130  H    1.000000
   131  H    1.000000
   132  H    1.000000
   133  H    1.000000
   134  H    1.000000
   135  H    1.000000
   136  H    1.000000
   137  H    1.000000
   138  H    1.000000
   139  H    1.000000
   140  H    1.000000
   141  H    1.000000
   142  H    1.000000
   143  H    1.000000
   144  H    1.000000
   145  H    1.000000
   146  H    1.000000
   147  H    1.000000
   148  H    1.000000
   149  H    1.000000
   150  H    1.000000
   151  H    1.000000
   152  H    1.000000
   153  H    1.000000
   154  H    1.000000
   155  H    1.000000
   156  H    1.000000
   157  H    1.000000
   158  H    1.000000
 Sum of Mulliken charges = 624.00000

 Dipole moment (field-independent basis, Debye):
    X=             -0.0000    Y=             -0.0000    Z=              0.0000  Tot=              0.0000
 Quadrupole moment (field-independent basis, Debye-Ang):
   XX=              0.0000   YY=             -0.0000   ZZ=              0.0000
   XY=             -0.0000   XZ=              0.0000   YZ=              0.0000

 Normal termination of Gaussian 16 at Thu Oct 14 01:20:31 2021.
