 Gaussian 16, Revision A.03,
 Gaussian 16:  ES64L-G16RevA.03 25-Dec-2016

 --------------------------------------------------------
 #p PBE1PBE/Def2SVP td=(nstates=5) density=(transition=1)
 --------------------------------------------------------

 --------------------------------
 TDDFT excited states in gaussian
 --------------------------------
 Symbolic Z-matrix:
 Charge =  0 Multiplicity = 1

                         Standard orientation:
 ---------------------------------------------------------------------
 Center     Atomic      Atomic             Coordinates (Angstroms)
 Number     Number       Type             X           Y           Z
 ---------------------------------------------------------------------
      1         12           0       25.141811   -0.771748    0.297664
      2          6           0       25.110463    2.299986   -1.337166
      3          6           0       25.640807    0.782915    3.244773
      4          6           0       25.606142   -3.806189    1.712602
      5          6           0       25.121978   -2.294074   -2.796188
      6          7           0       25.369561    1.360062    0.858798
      7          6           0       25.110105    2.437488    0.050474
      8          6           0       25.147295    3.692880    0.836170
      9          6           0       25.368789    3.285439    2.297436
     10          6           0       25.456277    1.701843    2.194917
     11          6           0       26.509715    3.922942    3.075117
     12          6           0       23.805582    4.590501    0.590845
     13          6           0       23.984196    5.993956   -0.034191
     14          1           0       23.167003    7.166457    0.449894
     15          7           0       25.442807   -1.429192    2.222088
     16          6           0       25.644576   -0.623083    3.332366
     17          6           0       25.891816   -1.433158    4.469244
     18          6           0       25.892677   -2.791360    4.050570
     19          6           0       25.619814   -2.720745    2.611408
     20          6           0       25.981384   -0.733780    5.881792
     21          6           0       26.203348   -3.989929    4.945436
     22          8           0       26.281292   -5.168217    4.565996
     23          6           0       26.352603   -3.795477    6.390233
     24          7           0       25.589143   -2.786790   -0.408918
     25          6           0       25.623030   -3.867683    0.342726
     26          6           0       25.900416   -5.126480   -0.509689
     27          6           0       25.240528   -4.617898   -1.851597
     28          6           0       25.289163   -3.102706   -1.682247
     29          6           0       27.374205   -5.613896   -0.767836
     30          6           0       23.756166   -5.132264   -2.173350
     31          6           0       22.686997   -4.819392   -1.208437
     32          7           0       25.164766   -0.191697   -1.770795
     33          6           0       25.139584   -0.950366   -2.957464
     34          6           0       25.131666   -0.069613   -4.081736
     35          6           0       25.185836    1.195003   -3.530335
     36          6           0       25.095870    1.065895   -2.105610
     37          6           0       25.333952   -0.441108   -5.468733
     38          6           0       25.057977    2.542221   -3.833772
     39          8           0       24.985312    3.138539   -4.913199
     40          6           0       25.099546    3.357532   -2.461728
     41          6           0       26.408098    4.076360   -2.467712
     42          8           0       27.550939    3.674764   -2.533853
     43          8           0       26.089784    5.370921   -2.414308
     44          6           0       27.241757    6.330313   -2.376636
     45          1           0       25.570678    1.395488    4.146016
     46          1           0       25.604480   -4.765878    2.232259
     47          1           0       25.049369   -2.791331   -3.765465
     48          1           0       26.011806    4.233425    0.452773
     49          1           0       24.457967    3.486492    2.860991
     50          1           0       27.235989    3.133403    2.885730
     51          1           0       26.301987    4.149083    4.121122
     52          1           0       26.949097    4.855964    2.723302
     53          1           0       23.269597    4.680450    1.535225
     54          1           0       23.118349    4.159616   -0.137704
     55          1           0       23.672566    5.898658   -1.074741
     56          1           0       25.032256    6.283783   -0.096669
     57          1           0       26.905273   -1.051706    6.364588
     58          1           0       25.141925   -1.259114    6.337404
     59          1           0       26.036584    0.354215    5.919458
     60          1           0       27.141402   -3.077131    6.609221
     61          1           0       26.824733   -4.706016    6.758408
     62          1           0       25.425606   -3.611497    6.933915
     63          1           0       25.215222   -5.911217   -0.188758
     64          1           0       25.899012   -5.014983   -2.623773
     65          1           0       28.107960   -4.828883   -0.946770
     66          1           0       27.251321   -6.272013   -1.628752
     67          1           0       27.745178   -6.187019    0.082288
     68          1           0       23.687753   -6.215706   -2.274221
     69          1           0       23.326893   -4.592315   -3.017268
     70          1           0       22.417411   -3.795802   -1.464804
     71          1           0       22.912758   -4.823356   -0.141645
     72          1           0       21.756347   -5.383256   -1.262931
     73          1           0       26.418293   -0.520052   -5.555315
     74          1           0       24.970350    0.275693   -6.204436
     75          1           0       24.793978   -1.342859   -5.759548
     76          1           0       24.229981    3.997545   -2.311874
     77          1           0       27.263990    6.681931   -1.344903
     78          1           0       27.081129    7.125466   -3.104318
     79          1           0       28.237350    5.926391   -2.562472
     80         12           0      -25.938793   -0.350201   -0.362262
     81          6           0      -23.860513    2.419545   -0.079900
     82          6           0      -27.988119    1.091655    1.981765
     83          6           0      -27.876435   -3.205957   -0.433700
     84          6           0      -23.553514   -2.001624   -2.294573
     85          7           0      -25.952665    1.582899    0.727760
     86          6           0      -25.085664    2.603948    0.618224
     87          6           0      -25.502216    3.892774    1.364576
     88          6           0      -26.726810    3.360030    2.225052
     89          6           0      -26.911565    1.872651    1.655093
     90          6           0      -26.360646    3.452987    3.749274
     91          6           0      -25.893869    4.984070    0.241219
     92          6           0      -25.172442    6.361261    0.327748
     93          1           0      -24.572843    6.682014    1.744554
     94          7           0      -27.640701   -1.042458    0.658002
     95          6           0      -28.389040   -0.233791    1.538198
     96          6           0      -29.636572   -0.904200    1.836764
     97          6           0      -29.606801   -2.152275    1.201828
     98          6           0      -28.360179   -2.163857    0.350140
     99          6           0      -30.570750   -0.391533    2.942052
    100          6           0      -30.651438   -3.296158    1.292151
    101          8           0      -30.573146   -4.386993    0.696705
    102          6           0      -31.926105   -3.051115    2.117869
    103          7           0      -25.658890   -2.336043   -1.194769
    104          6           0      -26.691439   -3.318867   -1.108026
    105          6           0      -26.202864   -4.662677   -1.687932
    106          6           0      -24.933094   -4.172415   -2.528351
    107          6           0      -24.719607   -2.726044   -2.009850
    108          6           0      -25.968396   -5.648474   -0.555252
    109          6           0      -25.233599   -4.167111   -4.086464
    110          6           0      -26.452942   -3.459896   -4.770306
    111          7           0      -24.073592    0.036141   -0.995388
    112          6           0      -23.187372   -0.722004   -1.766725
    113          6           0      -21.996294    0.033094   -1.984211
    114          6           0      -22.218045    1.264708   -1.394959
    115          6           0      -23.454735    1.205668   -0.706154
    116          6           0      -20.724268   -0.429360   -2.664985
    117          6           0      -21.646776    2.534058   -1.175796
    118          8           0      -20.548978    2.888943   -1.466282
    119          6           0      -22.649429    3.290373   -0.209296
    120          6           0      -21.922225    3.454069    1.096677
    121          8           0      -22.161237    2.803638    2.092621
    122          8           0      -20.983418    4.390891    0.917726
    123          6           0      -19.940141    4.337974    1.912412
    124          1           0      -28.688464    1.575846    2.665175
    125          1           0      -28.365583   -4.165126   -0.255222
    126          1           0      -22.790910   -2.509659   -2.889414
    127          1           0      -24.725312    4.341465    1.983310
    128          1           0      -27.668961    3.880919    2.052846
    129          1           0      -26.639862    2.584212    4.345875
    130          1           0      -26.948439    4.334279    4.004465
    131          1           0      -25.310124    3.737920    3.801713
    132          1           0      -26.981298    5.054994    0.229821
    133          1           0      -25.645830    4.538977   -0.722664
    134          1           0      -25.987827    7.035900    0.069031
    135          1           0      -24.367962    6.505954   -0.392739
    136          1           0      -30.700190   -1.207769    3.653208
    137          1           0      -31.558051   -0.200379    2.519435
    138          1           0      -30.149347    0.503864    3.397931
    139          1           0      -31.630410   -3.078803    3.167446
    140          1           0      -32.545849   -3.934697    1.966139
    141          1           0      -32.479111   -2.213043    1.694406
    142          1           0      -26.974369   -4.948883   -2.403345
    143          1           0      -24.117156   -4.885146   -2.414083
    144          1           0      -26.605961   -5.466251    0.310007
    145          1           0      -24.931232   -5.610873   -0.222903
    146          1           0      -26.223936   -6.661422   -0.865598
    147          1           0      -25.212147   -5.201794   -4.428766
    148          1           0      -24.389401   -3.604367   -4.484980
    149          1           0      -27.288758   -4.159566   -4.783606
    150          1           0      -26.123288   -3.237450   -5.785844
    151          1           0      -26.723062   -2.479557   -4.376487
    152          1           0      -20.894722   -0.727838   -3.699529
    153          1           0      -20.422168   -1.299935   -2.083159
    154          1           0      -19.963165    0.337389   -2.816270
    155          1           0      -22.973220    4.291372   -0.494929
    156          1           0      -18.965452    4.662233    1.548562
    157          1           0      -19.806104    3.468729    2.556110
    158          1           0      -20.095391    5.030134    2.740290
 ---------------------------------------------------------------------

 SCF Done:  E(RPBE1PBE) =  -4067.35746967     A.U. after   17 cycles

 Excitation energies and oscillator strengths:

 Excited State   1:      Singlet-A      1.8555 eV  668.19 nm  f=0.3651  <S**2>=0.000
     310 -> 316       -0.16960
     312 -> 314        0.69247
     312 <- 314       -0.10766
 This state for optimization and/or second-order correction.
 Total Energy, E(TD-HF/TD-DFT) =  -4067.28928059
 Copying the excited state density for this state as the 1-particle RhoCI density.

 Excited State   2:      Singlet-A      1.8587 eV  667.05 nm  f=0.3600  <S**2>=0.000
     309 -> 315        0.16367
     311 -> 313        0.69181
     311 <- 313       -0.10753

 Excited State   3:      Singlet-A      1.8792 eV  659.79 nm  f=0.0000  <S**2>=0.000
     312 -> 313        0.70711

 Excited State   4:      Singlet-A      2.1283 eV  582.56 nm  f=0.0000  <S**2>=0.000
     311 -> 314        0.70711

 Excited State   5:      Singlet-A      2.1770 eV  569.52 nm  f=0.1426  <S**2>=0.000
     309 -> 313        0.66023
     311 -> 315       -0.23474

 The electronic state is 1-A.
 Alpha  occ. eigenvalues --  -46.92739 -46.91476 -19.26698 -19.25691 -19.20183
 Alpha  occ. eigenvalues --  -19.19352 -19.19310 -19.19000 -19.18910 -19.18476
 Alpha  occ. eigenvalues --  -14.41714 -14.41643 -14.41227 -14.40939 -14.39389
 Alpha  occ. eigenvalues --  -14.39320 -14.38650 -14.38619 -10.36215 -10.35612
 Alpha  occ. eigenvalues --  -10.32443 -10.32218 -10.31745 -10.31284 -10.29217
 Alpha  occ. eigenvalues --  -10.29192 -10.28938 -10.28918 -10.28506 -10.28373
 Alpha  occ. eigenvalues --  -10.28237 -10.28212 -10.28019 -10.27840 -10.27740
 Alpha  occ. eigenvalues --  -10.27676 -10.27626 -10.27568 -10.27520 -10.27377
 Alpha  occ. eigenvalues --  -10.26803 -10.26631 -10.26441 -10.26379 -10.26377
 Alpha  occ. eigenvalues --  -10.26359 -10.26339 -10.26272 -10.25817 -10.25813
 Alpha  occ. eigenvalues --  -10.25683 -10.25667 -10.25632 -10.25619 -10.25587
 Alpha  occ. eigenvalues --  -10.25545 -10.25538 -10.25347 -10.25336 -10.25270
 Alpha  occ. eigenvalues --  -10.25258 -10.25137 -10.25026 -10.24922 -10.24915
 Alpha  occ. eigenvalues --  -10.24728 -10.24717 -10.24287 -10.24263 -10.24154
 Alpha  occ. eigenvalues --  -10.24017 -10.23986 -10.23971 -10.23753 -10.23514
 Alpha  occ. eigenvalues --  -10.23408 -10.23381 -10.23340 -10.23198 -10.23011
 Alpha  occ. eigenvalues --  -10.22923 -10.22891 -10.22785 -10.22346 -10.22141
 Alpha  occ. eigenvalues --  -10.22126  -3.14732  -3.13657  -1.87575  -1.87084
 Alpha  occ. eigenvalues --   -1.86971  -1.86499  -1.86008  -1.85903  -1.12844
 Alpha  occ. eigenvalues --   -1.11785  -1.06584  -1.03862  -1.03785  -1.03303
 Alpha  occ. eigenvalues --   -1.03206  -1.02177  -1.00039  -0.98934  -0.98686
 Alpha  occ. eigenvalues --   -0.98065  -0.97893  -0.97323  -0.97291  -0.95991
 Alpha  occ. eigenvalues --   -0.87016  -0.86564  -0.83525  -0.83047  -0.82938
 Alpha  occ. eigenvalues --   -0.82700  -0.82347  -0.82274  -0.82031  -0.81950
 Alpha  occ. eigenvalues --   -0.81325  -0.81167  -0.80813  -0.80371  -0.78950
 Alpha  occ. eigenvalues --   -0.78546  -0.78189  -0.77628  -0.77373  -0.76537
 Alpha  occ. eigenvalues --   -0.76252  -0.75844  -0.75486  -0.75190  -0.75091
 Alpha  occ. eigenvalues --   -0.74198  -0.73089  -0.72058  -0.71983  -0.71717
 Alpha  occ. eigenvalues --   -0.71381  -0.71012  -0.70305  -0.70099  -0.69703
 Alpha  occ. eigenvalues --   -0.69349  -0.67930  -0.67349  -0.66150  -0.65642
 Alpha  occ. eigenvalues --   -0.63785  -0.63482  -0.63233  -0.63068  -0.62316
 Alpha  occ. eigenvalues --   -0.62174  -0.61583  -0.60867  -0.60280  -0.60263
 Alpha  occ. eigenvalues --   -0.59921  -0.59335  -0.59070  -0.59022  -0.58496
 Alpha  occ. eigenvalues --   -0.58390  -0.56913  -0.56627  -0.55018  -0.54496
 Alpha  occ. eigenvalues --   -0.54446  -0.53924  -0.53889  -0.53541  -0.53265
 Alpha  occ. eigenvalues --   -0.52831  -0.52752  -0.52593  -0.52384  -0.51827
 Alpha  occ. eigenvalues --   -0.51046  -0.50691  -0.50302  -0.50260  -0.50106
 Alpha  occ. eigenvalues --   -0.49628  -0.49509  -0.49356  -0.49200  -0.49031
 Alpha  occ. eigenvalues --   -0.48498  -0.47910  -0.47823  -0.47802  -0.47760
 Alpha  occ. eigenvalues --   -0.47456  -0.47289  -0.47012  -0.46805  -0.46741
 Alpha  occ. eigenvalues --   -0.46517  -0.46497  -0.46376  -0.46209  -0.45858
 Alpha  occ. eigenvalues --   -0.45693  -0.45564  -0.45087  -0.44996  -0.44433
 Alpha  occ. eigenvalues --   -0.44426  -0.44405  -0.44327  -0.44129  -0.44056
 Alpha  occ. eigenvalues --   -0.43839  -0.43820  -0.43604  -0.43528  -0.43278
 Alpha  occ. eigenvalues --   -0.43161  -0.42984  -0.42967  -0.42729  -0.42599
 Alpha  occ. eigenvalues --   -0.42446  -0.42175  -0.41986  -0.41780  -0.41689
 Alpha  occ. eigenvalues --   -0.41539  -0.41405  -0.41346  -0.41028  -0.40985
 Alpha  occ. eigenvalues --   -0.40932  -0.40760  -0.40533  -0.40418  -0.40261
 Alpha  occ. eigenvalues --   -0.40084  -0.39746  -0.39665  -0.39502  -0.39415
 Alpha  occ. eigenvalues --   -0.39237  -0.39143  -0.39013  -0.38947  -0.38859
 Alpha  occ. eigenvalues --   -0.38542  -0.38467  -0.38381  -0.38186  -0.38152
 Alpha  occ. eigenvalues --   -0.38052  -0.37880  -0.37767  -0.37755  -0.37484
 Alpha  occ. eigenvalues --   -0.37305  -0.37249  -0.37033  -0.36956  -0.36871
 Alpha  occ. eigenvalues --   -0.36723  -0.36628  -0.36439  -0.36215  -0.35958
 Alpha  occ. eigenvalues --   -0.35801  -0.35699  -0.35644  -0.35587  -0.35175
 Alpha  occ. eigenvalues --   -0.35103  -0.34493  -0.34382  -0.34089  -0.33886
 Alpha  occ. eigenvalues --   -0.33064  -0.33052  -0.32693  -0.32674  -0.32468
 Alpha  occ. eigenvalues --   -0.32081  -0.32046  -0.31935  -0.31539  -0.31379
 Alpha  occ. eigenvalues --   -0.31202  -0.31182  -0.29687  -0.29606  -0.29206
 Alpha  occ. eigenvalues --   -0.29185  -0.28990  -0.28258  -0.27132  -0.27115
 Alpha  occ. eigenvalues --   -0.26181  -0.26139  -0.25802  -0.25735  -0.25582
 Alpha  occ. eigenvalues --   -0.25466  -0.25244  -0.25163  -0.20976  -0.20679
 Alpha  occ. eigenvalues --   -0.19083  -0.18606
 Alpha virt. eigenvalues --   -0.11444  -0.11002  -0.05170  -0.04918  -0.03924
 Alpha virt. eigenvalues --   -0.03629  -0.02133  -0.01911  -0.00608  -0.00326
 Alpha virt. eigenvalues --    0.00551   0.01027   0.01616   0.01889   0.01920

 Mulliken charges:
               1
     1  Mg  11.999877
     2  C    5.998687
     3  C    5.999898
     4  C    6.001336
     5  C    6.000745
     6  N    6.999081
     7  C    6.001472
     8  C    5.999513
     9  C    6.000219
    10  C    5.998999
    11  C    6.000099
    12  C    5.999924
    13  C    5.999975
    14  H    1.000165
    15  N    7.000261
    16  C    5.998539
    17  C    5.999155
    18  C    5.999464
    19  C    5.998435
    20  C    5.999991
    21  C    5.999431
    22  O    7.998682
    23  C    6.000385
    24  N    7.001006
    25  C    5.998301
    26  C    6.000421
    27  C    5.999564
    28  C    6.000879
    29  C    5.999934
    30  C    5.999598
    31  C    6.000018
    32  N    6.999827
    33  C    6.001157
    34  C    6.001367
    35  C    6.000151
    36  C    6.001255
    37  C    5.999837
    38  C    6.000620
    39  O    8.001528
    40  C    6.000071
    41  C    6.000160
    42  O    8.000087
    43  O    8.000068
    44  C    5.999932
    45  H    0.999327
    46  H    0.999965
    47  H    1.000688
    48  H    0.999916
    49  H    0.999877
    50  H    1.000011
    51  H    0.999912
    52  H    0.999391
    53  H    1.000307
    54  H    0.999809
    55  H    0.999756
    56  H    0.999974
    57  H    0.999221
    58  H    0.999364
    59  H    0.999369
    60  H    0.999754
    61  H    0.999370
    62  H    0.999625
    63  H    1.000106
    64  H    1.000219
    65  H    0.999827
    66  H    0.999723
    67  H    1.000270
    68  H    1.000470
    69  H    0.999880
    70  H    0.999745
    71  H    1.000695
    72  H    1.000254
    73  H    1.000862
    74  H    1.000713
    75  H    1.000720
    76  H    1.000350
    77  H    1.000286
    78  H    1.000068
    79  H    1.000057
    80  Mg  11.997317
    81  C    6.017284
    82  C    5.988729
    83  C    5.979277
    84  C    5.996253
    85  N    7.006256
    86  C    5.972507
    87  C    6.009196
    88  C    5.991591
    89  C    6.028521
    90  C    5.996894
    91  C    6.003597
    92  C    6.002249
    93  H    0.996334
    94  N    6.995291
    95  C    6.043436
    96  C    6.016125
    97  C    6.015457
    98  C    6.037866
    99  C    5.998298
   100  C    6.012897
   101  O    8.029446
   102  C    5.994645
   103  N    6.990573
   104  C    6.032492
   105  C    5.992010
   106  C    6.010389
   107  C    5.976854
   108  C    5.996318
   109  C    6.006334
   110  C    5.996043
   111  N    7.003681
   112  C    5.971489
   113  C    5.969220
   114  C    6.000944
   115  C    5.970064
   116  C    5.999404
   117  C    5.981862
   118  O    7.972657
   119  C    5.998898
   120  C    5.997979
   121  O    7.989628
   122  O    8.000792
   123  C    6.004866
   124  H    1.010797
   125  H    1.004210
   126  H    0.988311
   127  H    1.000417
   128  H    1.000212
   129  H    0.996512
   130  H    1.004685
   131  H    1.012399
   132  H    0.988972
   133  H    1.004053
   134  H    0.996008
   135  H    1.003611
   136  H    1.015055
   137  H    1.016736
   138  H    1.016033
   139  H    1.008043
   140  H    1.014048
   141  H    1.007178
   142  H    0.998758
   143  H    0.996878
   144  H    0.991880
   145  H    1.011078
   146  H    1.004476
   147  H    0.991189
   148  H    1.005882
   149  H    0.992109
   150  H    1.001137
   151  H    0.998355
   152  H    0.981625
   153  H    0.984153
   154  H    0.987306
   155  H    0.988977
   156  H    0.997292
   157  H    0.996986
   158  H    0.992675
 Sum of Mulliken charges = 624.00000

 Dipole moment (field-independent basis, Debye):
    X=             -9.1579    Y=             -2.4204    Z=              3.7473  Tot=             10.1866
 Quadrupole moment (field-independent basis, Debye-Ang):
   XX=            468.5444   YY=              0.9007   ZZ=             -1.3457
   XY=             70.4840   XZ=           -121.0938   YZ=             -2.8523

 Normal termination of Gaussian 16 at Thu Oct 14 04:08:49 2021.
