 Gaussian 16, Revision A.03,
 Gaussian 16:  ES64L-G16RevA.03 25-Dec-2016

 --------------------------------------------------------
 #p PBE1PBE/Def2SVP td=(nstates=5) density=(transition=1)
 --------------------------------------------------------

 --------------------------------
 TDDFT excited states in gaussian
 --------------------------------
 Symbolic Z-matrix:
 Charge =  0 Multiplicity = 1

                         Standard orientation:
 ---------------------------------------------------------------------
 Center     Atomic      Atomic             Coordinates (Angstroms)
 Number     Number       Type             X           Y           Z
 ---------------------------------------------------------------------
      1         12           0       31.391196    0.397560   -0.209206
      2          6           0       28.727653   -1.667739    0.889339
      3          6           0       29.423263    3.082966    0.456718
      4          6           0       34.181492    2.323196   -0.465256
      5          6           0       33.397074   -2.426683   -0.322570
      6          7           0       29.348089    0.554730    0.743461
      7          6           0       28.384067   -0.376701    1.024850
      8          6           0       27.099264    0.252587    1.417568
      9          6           0       27.276005    1.769240    0.936726
     10          6           0       28.748458    1.827883    0.712552
     11          6           0       26.445810    2.072258   -0.300182
     12          6           0       26.911330    0.005606    2.922660
     13          6           0       25.558734   -0.679019    3.391367
     14          1           0       24.642822   -0.013779    4.462471
     15          7           0       31.806437    2.413229   -0.085883
     16          6           0       30.805235    3.373602    0.114852
     17          6           0       31.391862    4.663102   -0.094929
     18          6           0       32.797826    4.502014   -0.337697
     19          6           0       32.965555    3.024583   -0.377749
     20          6           0       30.538845    5.924477   -0.053811
     21          6           0       33.853920    5.563446   -0.550503
     22          8           0       33.382605    6.735219   -0.623212
     23          6           0       35.400504    5.405235   -0.579854
     24          7           0       33.532708    0.021445   -0.383826
     25          6           0       34.469110    0.987888   -0.506498
     26          6           0       35.913941    0.430283   -0.602714
     27          6           0       35.638845   -1.111677   -0.668733
     28          6           0       34.064850   -1.178561   -0.384200
     29          6           0       36.598439    0.995341   -1.834425
     30          6           0       36.393976   -1.942246    0.323587
     31          6           0       37.427462   -2.842358   -0.297405
     32          7           0       31.163750   -1.606130    0.003826
     33          6           0       32.031714   -2.699147   -0.113300
     34          6           0       31.358547   -3.896091   -0.097656
     35          6           0       30.040670   -3.543664    0.258179
     36          6           0       29.997733   -2.156938    0.382977
     37          6           0       31.973007   -5.211107   -0.528377
     38          6           0       28.674556   -4.096178    0.458176
     39          8           0       28.295596   -5.222698    0.369725
     40          6           0       27.855715   -2.844696    0.953726
     41          6           0       26.495748   -2.918540    0.294426
     42          8           0       25.461132   -3.269578    0.861690
     43          8           0       26.575432   -2.476969   -1.048674
     44          6           0       25.263833   -2.410178   -1.692475
     45          1           0       28.742415    3.937007    0.452151
     46          1           0       35.088943    2.902415   -0.651501
     47          1           0       33.994353   -3.318291   -0.123903
     48          1           0       26.281466   -0.227180    0.879709
     49          1           0       26.934592    2.421115    1.740396
     50          1           0       26.405542    1.242716   -1.004779
     51          1           0       26.936243    2.874763   -0.852155
     52          1           0       25.441070    2.431860   -0.078298
     53          1           0       26.999552    0.972775    3.417324
     54          1           0       27.735225   -0.536739    3.386519
     55          1           0       25.954885   -1.605726    3.807362
     56          1           0       24.993789   -1.042834    2.533934
     57          1           0       29.932197    5.958321    0.851152
     58          1           0       29.864752    5.859809   -0.907844
     59          1           0       31.057972    6.882695   -0.005721
     60          1           0       35.575711    4.865734   -1.510082
     61          1           0       35.704445    4.811581    0.282370
     62          1           0       35.920533    6.362480   -0.534454
     63          1           0       36.547179    0.686987    0.246153
     64          1           0       35.735465   -1.461869   -1.696095
     65          1           0       36.478917    2.078638   -1.810596
     66          1           0       36.101926    0.586720   -2.715126
     67          1           0       37.634414    0.729010   -2.040563
     68          1           0       35.762897   -2.624576    0.893037
     69          1           0       36.915406   -1.406137    1.116311
     70          1           0       38.381380   -2.639890    0.188011
     71          1           0       37.602814   -2.621112   -1.350213
     72          1           0       37.173576   -3.902494   -0.267556
     73          1           0       31.136307   -5.881662   -0.726942
     74          1           0       32.610260   -5.642638    0.243130
     75          1           0       32.554043   -4.965610   -1.417045
     76          1           0       27.644939   -3.113345    1.989505
     77          1           0       25.266339   -1.664765   -2.487858
     78          1           0       24.508598   -2.013032   -1.015728
     79          1           0       24.916354   -3.377387   -2.056650
     80         12           0      -31.547768    0.032181    0.494633
     81          6           0      -29.249878   -1.591463   -1.672784
     82          6           0      -32.450087    1.977028   -2.318800
     83          6           0      -33.435453    1.849362    2.438556
     84          6           0      -30.267574   -1.815389    3.148720
     85          7           0      -30.901253    0.185416   -1.786175
     86          6           0      -30.017467   -0.678899   -2.384486
     87          6           0      -29.931833   -0.499025   -3.890686
     88          6           0      -30.891728    0.758042   -4.041110
     89          6           0      -31.491575    0.978731   -2.643915
     90          6           0      -30.159253    1.931444   -4.685177
     91          6           0      -30.446455   -1.758138   -4.622346
     92          6           0      -29.743208   -2.189918   -5.965302
     93          1           0      -28.924216   -1.126070   -6.733606
     94          7           0      -32.842571    1.644656    0.110979
     95          6           0      -33.000643    2.336469   -1.090235
     96          6           0      -33.991855    3.402604   -0.875369
     97          6           0      -34.361749    3.304934    0.505696
     98          6           0      -33.551289    2.194886    1.042322
     99          6           0      -34.367455    4.345706   -1.889258
    100          6           0      -35.354910    4.160481    1.285713
    101          8           0      -35.498944    4.017496    2.510278
    102          6           0      -36.296030    5.057171    0.581754
    103          7           0      -31.738037    0.088308    2.529326
    104          6           0      -32.667981    0.865967    3.089992
    105          6           0      -32.662512    0.715955    4.646059
    106          6           0      -31.802596   -0.574831    4.828674
    107          6           0      -31.211137   -0.799219    3.472380
    108          6           0      -32.167378    1.991972    5.417474
    109          6           0      -32.833974   -1.708274    5.198513
    110          6           0      -33.443695   -2.619581    4.078188
    111          7           0      -30.154649   -1.473764    0.728850
    112          6           0      -29.731780   -2.121522    1.903710
    113          6           0      -28.634531   -3.055872    1.549581
    114          6           0      -28.403261   -2.820616    0.199326
    115          6           0      -29.316162   -1.914690   -0.297774
    116          6           0      -27.866399   -3.714295    2.592115
    117          6           0      -27.455362   -3.148089   -0.862885
    118          8           0      -26.466556   -3.869363   -0.794133
    119          6           0      -27.948465   -2.333691   -2.149518
    120          6           0      -26.885392   -1.430273   -2.652946
    121          8           0      -26.745835   -0.244770   -2.366190
    122          8           0      -26.058274   -2.145596   -3.539439
    123          6           0      -24.895466   -1.537508   -4.145598
    124          1           0      -32.958874    2.445542   -3.164304
    125          1           0      -34.059482    2.405162    3.142036
    126          1           0      -29.981944   -2.362464    4.049272
    127          1           0      -28.919962   -0.276739   -4.230504
    128          1           0      -31.625043    0.481940   -4.798323
    129          1           0      -30.631868    2.332478   -5.581099
    130          1           0      -29.115192    1.760682   -4.947734
    131          1           0      -30.218507    2.756924   -3.974585
    132          1           0      -31.511800   -1.673554   -4.836450
    133          1           0      -30.319975   -2.505000   -3.837803
    134          1           0      -30.487920   -2.482243   -6.704853
    135          1           0      -29.269616   -3.145527   -5.740358
    136          1           0      -35.456177    4.319929   -1.939661
    137          1           0      -33.763870    4.214812   -2.786879
    138          1           0      -33.959429    5.260305   -1.457842
    139          1           0      -35.821825    5.946588    0.165724
    140          1           0      -37.041322    5.423571    1.287464
    141          1           0      -36.666763    4.523423   -0.292855
    142          1           0      -33.736324    0.595876    4.789810
    143          1           0      -31.095916   -0.479097    5.653399
    144          1           0      -33.021563    2.587119    5.740653
    145          1           0      -31.460240    2.498145    4.761118
    146          1           0      -31.626117    1.620951    6.287648
    147          1           0      -33.566065   -1.311296    5.902044
    148          1           0      -32.202401   -2.465835    5.663489
    149          1           0      -34.498587   -2.671013    4.346179
    150          1           0      -33.043252   -3.634131    4.088041
    151          1           0      -33.392052   -2.231153    3.061632
    152          1           0      -27.575657   -2.968384    3.330736
    153          1           0      -26.960653   -4.090717    2.115608
    154          1           0      -28.370599   -4.615513    2.939902
    155          1           0      -28.130727   -3.118234   -2.884593
    156          1           0      -23.968498   -1.751787   -3.614258
    157          1           0      -25.093296   -0.506477   -4.439144
    158          1           0      -24.908335   -2.015673   -5.125450
 ---------------------------------------------------------------------

 SCF Done:  E(RPBE1PBE) =  -4067.37481062     A.U. after   16 cycles

 Excitation energies and oscillator strengths:

 Excited State   1:      Singlet-A      1.7628 eV  703.35 nm  f=0.0000  <S**2>=0.000
     312 -> 313        0.70711
 This state for optimization and/or second-order correction.
 Total Energy, E(TD-HF/TD-DFT) =  -4067.31002988
 Copying the excited state density for this state as the 1-particle RhoCI density.

 Excited State   2:      Singlet-A      1.8485 eV  670.72 nm  f=0.3408  <S**2>=0.000
     309 -> 315       -0.16643
     311 -> 313        0.69423
     311 <- 313       -0.11258

 Excited State   3:      Singlet-A      1.8853 eV  657.63 nm  f=0.3642  <S**2>=0.000
     310 -> 316       -0.18510
     312 -> 314        0.68868
     312 <- 314       -0.10057

 Excited State   4:      Singlet-A      2.2338 eV  555.04 nm  f=0.1566  <S**2>=0.000
     309 -> 313        0.65773
     311 -> 315        0.24140

 Excited State   5:      Singlet-A      2.2635 eV  547.75 nm  f=0.0751  <S**2>=0.000
     310 -> 314        0.63962
     312 -> 316        0.29064

 The electronic state is 1-A.
 Alpha  occ. eigenvalues --  -46.92417 -46.91906 -19.26290 -19.24644 -19.21265
 Alpha  occ. eigenvalues --  -19.20101 -19.20073 -19.19648 -19.18807 -19.18524
 Alpha  occ. eigenvalues --  -14.41930 -14.41687 -14.41433 -14.40974 -14.39709
 Alpha  occ. eigenvalues --  -14.39198 -14.38731 -14.38710 -10.37420 -10.36447
 Alpha  occ. eigenvalues --  -10.32838 -10.32680 -10.32628 -10.32249 -10.29687
 Alpha  occ. eigenvalues --  -10.28913 -10.28902 -10.28680 -10.28543 -10.28538
 Alpha  occ. eigenvalues --  -10.28394 -10.28304 -10.28285 -10.28285 -10.28102
 Alpha  occ. eigenvalues --  -10.28021 -10.27856 -10.27765 -10.27130 -10.26794
 Alpha  occ. eigenvalues --  -10.26743 -10.26653 -10.26531 -10.26347 -10.26331
 Alpha  occ. eigenvalues --  -10.26190 -10.26186 -10.26163 -10.26127 -10.26031
 Alpha  occ. eigenvalues --  -10.26019 -10.25968 -10.25822 -10.25795 -10.25470
 Alpha  occ. eigenvalues --  -10.25437 -10.25303 -10.25117 -10.25102 -10.25043
 Alpha  occ. eigenvalues --  -10.25014 -10.25006 -10.24971 -10.24767 -10.24674
 Alpha  occ. eigenvalues --  -10.24658 -10.24647 -10.24624 -10.24428 -10.24352
 Alpha  occ. eigenvalues --  -10.24248 -10.24121 -10.24059 -10.23963 -10.23771
 Alpha  occ. eigenvalues --  -10.23644 -10.23570 -10.23246 -10.23129 -10.22904
 Alpha  occ. eigenvalues --  -10.22807 -10.22766 -10.22724 -10.22689 -10.22623
 Alpha  occ. eigenvalues --  -10.22561  -3.14559  -3.14030  -1.87380  -1.86938
 Alpha  occ. eigenvalues --   -1.86879  -1.86787  -1.86418  -1.86240  -1.10345
 Alpha  occ. eigenvalues --   -1.09382  -1.06858  -1.04499  -1.03763  -1.02803
 Alpha  occ. eigenvalues --   -1.02316  -1.02048  -0.99884  -0.99274  -0.98954
 Alpha  occ. eigenvalues --   -0.98589  -0.97998  -0.97760  -0.97409  -0.96179
 Alpha  occ. eigenvalues --   -0.87698  -0.86371  -0.84204  -0.83950  -0.83640
 Alpha  occ. eigenvalues --   -0.83367  -0.82910  -0.82728  -0.82196  -0.81586
 Alpha  occ. eigenvalues --   -0.81420  -0.81112  -0.80628  -0.80243  -0.79106
 Alpha  occ. eigenvalues --   -0.78621  -0.78330  -0.77611  -0.76941  -0.76676
 Alpha  occ. eigenvalues --   -0.76248  -0.76105  -0.75185  -0.75022  -0.74836
 Alpha  occ. eigenvalues --   -0.74810  -0.73083  -0.72149  -0.71755  -0.71461
 Alpha  occ. eigenvalues --   -0.71194  -0.71191  -0.70806  -0.70083  -0.69874
 Alpha  occ. eigenvalues --   -0.69126  -0.67994  -0.66678  -0.66626  -0.65757
 Alpha  occ. eigenvalues --   -0.63786  -0.63647  -0.63383  -0.63200  -0.62352
 Alpha  occ. eigenvalues --   -0.62127  -0.61687  -0.61035  -0.60701  -0.60160
 Alpha  occ. eigenvalues --   -0.59948  -0.59507  -0.59340  -0.59187  -0.58996
 Alpha  occ. eigenvalues --   -0.58766  -0.57689  -0.56114  -0.55084  -0.54759
 Alpha  occ. eigenvalues --   -0.54633  -0.54217  -0.53922  -0.53650  -0.53571
 Alpha  occ. eigenvalues --   -0.52723  -0.52572  -0.52449  -0.51748  -0.51387
 Alpha  occ. eigenvalues --   -0.50839  -0.50818  -0.50346  -0.50217  -0.50066
 Alpha  occ. eigenvalues --   -0.49783  -0.49437  -0.48986  -0.48804  -0.48456
 Alpha  occ. eigenvalues --   -0.48421  -0.48234  -0.48184  -0.47816  -0.47803
 Alpha  occ. eigenvalues --   -0.47702  -0.47397  -0.47348  -0.46891  -0.46842
 Alpha  occ. eigenvalues --   -0.46522  -0.46320  -0.46208  -0.46159  -0.45967
 Alpha  occ. eigenvalues --   -0.45738  -0.45528  -0.45324  -0.45156  -0.45144
 Alpha  occ. eigenvalues --   -0.44841  -0.44679  -0.44504  -0.44456  -0.44306
 Alpha  occ. eigenvalues --   -0.44281  -0.44078  -0.43657  -0.43592  -0.43450
 Alpha  occ. eigenvalues --   -0.43304  -0.43109  -0.43006  -0.42972  -0.42681
 Alpha  occ. eigenvalues --   -0.42654  -0.42427  -0.42223  -0.42055  -0.41893
 Alpha  occ. eigenvalues --   -0.41636  -0.41629  -0.41332  -0.41270  -0.41176
 Alpha  occ. eigenvalues --   -0.40901  -0.40826  -0.40745  -0.40657  -0.40483
 Alpha  occ. eigenvalues --   -0.40213  -0.40193  -0.40086  -0.39950  -0.39721
 Alpha  occ. eigenvalues --   -0.39683  -0.39393  -0.39057  -0.38964  -0.38950
 Alpha  occ. eigenvalues --   -0.38800  -0.38751  -0.38682  -0.38491  -0.38473
 Alpha  occ. eigenvalues --   -0.38222  -0.38150  -0.38144  -0.37746  -0.37573
 Alpha  occ. eigenvalues --   -0.37503  -0.37325  -0.37270  -0.37218  -0.36908
 Alpha  occ. eigenvalues --   -0.36802  -0.36649  -0.36569  -0.36409  -0.36215
 Alpha  occ. eigenvalues --   -0.36047  -0.36015  -0.35907  -0.35408  -0.35201
 Alpha  occ. eigenvalues --   -0.35058  -0.34807  -0.34214  -0.34053  -0.33766
 Alpha  occ. eigenvalues --   -0.33445  -0.33203  -0.32773  -0.32705  -0.32413
 Alpha  occ. eigenvalues --   -0.32393  -0.32202  -0.32140  -0.31701  -0.31457
 Alpha  occ. eigenvalues --   -0.31031  -0.30728  -0.30303  -0.29859  -0.29280
 Alpha  occ. eigenvalues --   -0.29065  -0.28857  -0.28683  -0.27425  -0.26601
 Alpha  occ. eigenvalues --   -0.26164  -0.25846  -0.25769  -0.25674  -0.25666
 Alpha  occ. eigenvalues --   -0.25490  -0.25106  -0.25103  -0.21381  -0.20765
 Alpha  occ. eigenvalues --   -0.19279  -0.18437
 Alpha virt. eigenvalues --   -0.11747  -0.10674  -0.05371  -0.05160  -0.03985
 Alpha virt. eigenvalues --   -0.03976  -0.02181  -0.02117  -0.00954  -0.00471
 Alpha virt. eigenvalues --    0.00263   0.00544   0.00717   0.01089   0.01393

 Mulliken charges:
               1
     1  Mg  12.000000
     2  C    6.000000
     3  C    6.000000
     4  C    6.000000
     5  C    6.000000
     6  N    7.000000
     7  C    6.000000
     8  C    6.000000
     9  C    6.000000
    10  C    6.000000
    11  C    6.000000
    12  C    6.000000
    13  C    6.000000
    14  H    1.000000
    15  N    7.000000
    16  C    6.000000
    17  C    6.000000
    18  C    6.000000
    19  C    6.000000
    20  C    6.000000
    21  C    6.000000
    22  O    8.000000
    23  C    6.000000
    24  N    7.000000
    25  C    6.000000
    26  C    6.000000
    27  C    6.000000
    28  C    6.000000
    29  C    6.000000
    30  C    6.000000
    31  C    6.000000
    32  N    7.000000
    33  C    6.000000
    34  C    6.000000
    35  C    6.000000
    36  C    6.000000
    37  C    6.000000
    38  C    6.000000
    39  O    8.000000
    40  C    6.000000
    41  C    6.000000
    42  O    8.000000
    43  O    8.000000
    44  C    6.000000
    45  H    1.000000
    46  H    1.000000
    47  H    1.000000
    48  H    1.000000
    49  H    1.000000
    50  H    1.000000
    51  H    1.000000
    52  H    1.000000
    53  H    1.000000
    54  H    1.000000
    55  H    1.000000
    56  H    1.000000
    57  H    1.000000
    58  H    1.000000
    59  H    1.000000
    60  H    1.000000
    61  H    1.000000
    62  H    1.000000
    63  H    1.000000
    64  H    1.000000
    65  H    1.000000
    66  H    1.000000
    67  H    1.000000
    68  H    1.000000
    69  H    1.000000
    70  H    1.000000
    71  H    1.000000
    72  H    1.000000
    73  H    1.000000
    74  H    1.000000
    75  H    1.000000
    76  H    1.000000
    77  H    1.000000
    78  H    1.000000
    79  H    1.000000
    80  Mg  12.000000
    81  C    6.000000
    82  C    6.000000
    83  C    6.000000
    84  C    6.000000
    85  N    7.000000
    86  C    6.000000
    87  C    6.000000
    88  C    6.000000
    89  C    6.000000
    90  C    6.000000
    91  C    6.000000
    92  C    6.000000
    93  H    1.000000
    94  N    7.000000
    95  C    6.000000
    96  C    6.000000
    97  C    6.000000
    98  C    6.000000
    99  C    6.000000
   100  C    6.000000
   101  O    8.000000
   102  C    6.000000
   103  N    7.000000
   104  C    6.000000
   105  C    6.000000
   106  C    6.000000
   107  C    6.000000
   108  C    6.000000
   109  C    6.000000
   110  C    6.000000
   111  N    7.000000
   112  C    6.000000
   113  C    6.000000
   114  C    6.000000
   115  C    6.000000
   116  C    6.000000
   117  C    6.000000
   118  O    8.000000
   119  C    6.000000
   120  C    6.000000
   121  O    8.000000
   122  O    8.000000
   123  C    6.000000
   124  H    1.000000
   125  H    1.000000
   126  H    1.000000
   127  H    1.000000
   128  H    1.000000
   129  H    1.000000
   130  H    1.000000
   131  H    1.000000
   132  H    1.000000
   133  H    1.000000
   134  H    1.000000
   135  H    1.000000
   136  H    1.000000
   137  H    1.000000
   138  H    1.000000
   139  H    1.000000
   140  H    1.000000
   141  H    1.000000
   142  H    1.000000
   143  H    1.000000
   144  H    1.000000
   145  H    1.000000
   146  H    1.000000
   147  H    1.000000
   148  H    1.000000
   149  H    1.000000
   150  H    1.000000
   151  H    1.000000
   152  H    1.000000
   153  H    1.000000
   154  H    1.000000
   155  H    1.000000
   156  H    1.000000
   157  H    1.000000
   158  H    1.000000
 Sum of Mulliken charges = 624.00000

 Dipole moment (field-independent basis, Debye):
    X=              0.0000    Y=              0.0000    Z=              0.0000  Tot=              0.0000
 Quadrupole moment (field-independent basis, Debye-Ang):
   XX=             -0.0000   YY=              0.0000   ZZ=             -0.0000
   XY=              0.0000   XZ=             -0.0000   YZ=             -0.0000

 Normal termination of Gaussian 16 at Thu Oct 14 22:39:28 2021.
