 Gaussian 16, Revision A.03,
 Gaussian 16:  ES64L-G16RevA.03 25-Dec-2016

 --------------------------------------------------------
 #p PBE1PBE/Def2SVP td=(nstates=5) density=(transition=1)
 --------------------------------------------------------

 --------------------------------
 TDDFT excited states in gaussian
 --------------------------------
 Symbolic Z-matrix:
 Charge =  0 Multiplicity = 1

                         Standard orientation:
 ---------------------------------------------------------------------
 Center     Atomic      Atomic             Coordinates (Angstroms)
 Number     Number       Type             X           Y           Z
 ---------------------------------------------------------------------
      1         12           0       29.855587    0.452613    0.518677
      2          6           0       29.441900   -2.203857   -1.628330
      3          6           0       29.141207    2.594899   -2.156927
      4          6           0       30.334420    3.118527    2.533126
      5          6           0       30.901301   -1.657168    2.962559
      6          7           0       29.605597    0.191389   -1.733704
      7          6           0       29.237401   -1.032247   -2.306773
      8          6           0       28.600689   -0.851455   -3.698938
      9          6           0       28.643238    0.715070   -3.836185
     10          6           0       29.108658    1.251715   -2.499629
     11          6           0       29.520473    1.190599   -4.987392
     12          6           0       27.169318   -1.432442   -3.977675
     13          6           0       27.062091   -2.661022   -5.034451
     14          1           0       26.160118   -2.297644   -6.218047
     15          7           0       29.859085    2.522506    0.228049
     16          6           0       29.410077    3.200214   -0.916962
     17          6           0       29.228514    4.631498   -0.653445
     18          6           0       29.660985    4.873919    0.760290
     19          6           0       29.921990    3.475377    1.287924
     20          6           0       28.737597    5.609337   -1.698143
     21          6           0       29.776759    6.099593    1.537087
     22          8           0       30.258428    6.060965    2.678918
     23          6           0       29.395497    7.465041    0.992564
     24          7           0       30.582912    0.654576    2.376712
     25          6           0       30.579816    1.859442    3.103679
     26          6           0       30.934171    1.715248    4.638830
     27          6           0       31.140001    0.114555    4.701629
     28          6           0       30.835962   -0.322798    3.250860
     29          6           0       32.228055    2.547068    5.107001
     30          6           0       30.195001   -0.550631    5.760575
     31          6           0       30.734191   -1.693313    6.562769
     32          7           0       30.219026   -1.559793    0.599177
     33          6           0       30.603515   -2.309856    1.714302
     34          6           0       30.524126   -3.704225    1.441458
     35          6           0       29.958683   -3.712439    0.112849
     36          6           0       29.883805   -2.387757   -0.335898
     37          6           0       30.791080   -4.876881    2.288587
     38          6           0       29.612698   -4.574698   -0.973474
     39          8           0       29.541528   -5.798599   -1.130329
     40          6           0       29.399098   -3.594984   -2.215051
     41          6           0       30.431426   -3.893704   -3.242663
     42          8           0       31.432058   -3.330317   -3.455818
     43          8           0       29.999217   -4.925772   -4.072283
     44          6           0       30.579550   -4.929703   -5.399060
     45          1           0       28.831006    3.251163   -2.972775
     46          1           0       30.455984    3.885405    3.300880
     47          1           0       31.091287   -2.346238    3.788068
     48          1           0       29.275219   -1.270151   -4.445024
     49          1           0       27.668276    1.123528   -4.103552
     50          1           0       30.373187    1.730663   -4.576788
     51          1           0       28.862398    1.876913   -5.518950
     52          1           0       29.823597    0.425232   -5.701521
     53          1           0       26.543016   -0.615551   -4.337067
     54          1           0       26.722753   -1.836523   -3.069053
     55          1           0       26.546177   -3.420449   -4.446645
     56          1           0       28.053376   -2.952661   -5.380726
     57          1           0       29.561000    5.754419   -2.398566
     58          1           0       28.507503    6.548162   -1.196743
     59          1           0       27.926933    5.217843   -2.313060
     60          1           0       29.885465    8.185427    1.647923
     61          1           0       28.319434    7.634427    0.941658
     62          1           0       29.835196    7.764930    0.041543
     63          1           0       30.053636    1.932945    5.242414
     64          1           0       32.131848   -0.209281    5.017844
     65          1           0       32.785594    1.940458    5.820941
     66          1           0       32.046435    3.446708    5.693758
     67          1           0       32.875066    2.832112    4.277168
     68          1           0       29.230656   -0.861646    5.359152
     69          1           0       29.928500    0.131360    6.567792
     70          1           0       30.160389   -2.556789    6.226606
     71          1           0       30.533675   -1.762135    7.631959
     72          1           0       31.794052   -1.828826    6.344823
     73          1           0       30.627195   -4.592754    3.328430
     74          1           0       31.852432   -5.073713    2.137782
     75          1           0       30.250959   -5.731298    1.880296
     76          1           0       28.414225   -3.756375   -2.652604
     77          1           0       31.581163   -5.328921   -5.243059
     78          1           0       30.631215   -3.882966   -5.698252
     79          1           0       30.025686   -5.579026   -6.077688
     80         12           0      -30.225318   -0.662628   -0.282933
     81          6           0      -28.465294    2.452528   -0.493933
     82          6           0      -27.266906   -2.047206    1.077146
     83          6           0      -32.013136   -3.347451    0.642119
     84          6           0      -33.143097    1.041660   -0.986738
     85          7           0      -28.077686    0.098287    0.235165
     86          6           0      -27.695928    1.399719    0.065718
     87          6           0      -26.371796    1.639024    0.773713
     88          6           0      -25.940856    0.127436    0.985320
     89          6           0      -27.138079   -0.718217    0.771908
     90          6           0      -24.758819   -0.410440    0.110836
     91          6           0      -26.586446    2.559514    2.017804
     92          6           0      -25.587795    3.757395    2.294489
     93          1           0      -24.755927    3.773308    3.589523
     94          7           0      -29.733581   -2.464375    0.513453
     95          6           0      -28.467058   -2.876761    1.005220
     96          6           0      -28.524763   -4.251017    1.468086
     97          6           0      -29.927052   -4.614249    1.340763
     98          6           0      -30.600907   -3.447018    0.803523
     99          6           0      -27.356699   -4.917933    2.065594
    100          6           0      -30.463329   -6.008180    1.710514
    101          8           0      -29.633228   -6.805843    2.236378
    102          6           0      -31.910157   -6.499058    1.491388
    103          7           0      -32.344488   -1.082347    0.091638
    104          6           0      -32.823645   -2.295051    0.291839
    105          6           0      -34.316248   -2.219191    0.306636
    106          6           0      -34.630383   -0.816289   -0.278437
    107          6           0      -33.274814   -0.181081   -0.326643
    108          6           0      -35.175686   -3.358297   -0.391279
    109          6           0      -35.694440    0.060104    0.563376
    110          6           0      -37.047518    0.416079   -0.099882
    111          7           0      -30.716653    1.234301   -0.847359
    112          6           0      -31.916791    1.783858   -1.098838
    113          6           0      -31.800697    3.153431   -1.443329
    114          6           0      -30.445372    3.436868   -1.259435
    115          6           0      -29.811796    2.237001   -0.848142
    116          6           0      -32.811851    4.127969   -1.897304
    117          6           0      -29.529573    4.534176   -1.316817
    118          8           0      -29.762036    5.697966   -1.555775
    119          6           0      -28.112772    3.897589   -0.738600
    120          6           0      -27.058298    4.026244   -1.751411
    121          8           0      -27.189382    3.794095   -2.959899
    122          8           0      -25.916989    4.418866   -1.085241
    123          6           0      -24.722317    4.616413   -1.904409
    124          1           0      -26.385731   -2.533221    1.498760
    125          1           0      -32.654435   -4.146536    1.018879
    126          1           0      -33.990460    1.565628   -1.434240
    127          1           0      -25.690725    2.034439    0.019690
    128          1           0      -25.774454    0.171891    2.062267
    129          1           0      -25.128219   -1.280803   -0.433371
    130          1           0      -23.897060   -0.750317    0.684829
    131          1           0      -24.405141    0.263768   -0.669799
    132          1           0      -26.493212    1.812172    2.805455
    133          1           0      -27.583684    2.984396    2.129990
    134          1           0      -26.208361    4.651312    2.234702
    135          1           0      -24.963335    3.885909    1.410910
    136          1           0      -26.997311   -4.255730    2.853616
    137          1           0      -26.549246   -4.977545    1.336118
    138          1           0      -27.468314   -5.954539    2.384620
    139          1           0      -32.550036   -5.988731    2.211454
    140          1           0      -31.811994   -7.580822    1.406697
    141          1           0      -32.133612   -6.138906    0.486602
    142          1           0      -34.618812   -2.283667    1.351082
    143          1           0      -34.865329   -1.057442   -1.315213
    144          1           0      -36.109591   -3.372311    0.171174
    145          1           0      -34.619291   -4.293771   -0.334970
    146          1           0      -35.355039   -3.025611   -1.413804
    147          1           0      -35.136013    0.960362    0.819353
    148          1           0      -35.828493   -0.429928    1.527652
    149          1           0      -37.291447    1.474566   -0.019716
    150          1           0      -37.830457   -0.180933    0.368507
    151          1           0      -37.112971    0.121133   -1.147342
    152          1           0      -32.353622    4.988513   -2.383706
    153          1           0      -33.230627    4.365028   -0.919109
    154          1           0      -33.635454    3.572621   -2.345867
    155          1           0      -27.871345    4.298112    0.245327
    156          1           0      -24.918598    5.271842   -2.753234
    157          1           0      -24.345262    3.650947   -2.244963
    158          1           0      -23.958352    5.098680   -1.294546
 ---------------------------------------------------------------------

 SCF Done:  E(RPBE1PBE) =  -4067.34649411     A.U. after   16 cycles

 Excitation energies and oscillator strengths:

 Excited State   1:      Singlet-A      1.8151 eV  683.08 nm  f=0.3908  <S**2>=0.000
     309 -> 315        0.14967
     311 -> 313        0.69580
     311 <- 313       -0.11534
 This state for optimization and/or second-order correction.
 Total Energy, E(TD-HF/TD-DFT) =  -4067.27979148
 Copying the excited state density for this state as the 1-particle RhoCI density.

 Excited State   2:      Singlet-A      1.8632 eV  665.42 nm  f=0.3807  <S**2>=0.000
     310 -> 316       -0.18036
     312 -> 314        0.69249
     312 <- 314       -0.10916

 Excited State   3:      Singlet-A      1.9091 eV  649.44 nm  f=0.0000  <S**2>=0.000
     312 -> 313        0.70711

 Excited State   4:      Singlet-A      2.0437 eV  606.65 nm  f=0.0000  <S**2>=0.000
     311 -> 314        0.70711

 Excited State   5:      Singlet-A      2.1895 eV  566.27 nm  f=0.1156  <S**2>=0.000
     309 -> 313        0.65567
     311 -> 315       -0.22781

 The electronic state is 1-A.
 Alpha  occ. eigenvalues --  -46.92299 -46.91373 -19.26868 -19.22906 -19.20730
 Alpha  occ. eigenvalues --  -19.19975 -19.19816 -19.18900 -19.18461 -19.18432
 Alpha  occ. eigenvalues --  -14.42058 -14.41572 -14.41398 -14.40975 -14.39887
 Alpha  occ. eigenvalues --  -14.39612 -14.39456 -14.38382 -10.37037 -10.35169
 Alpha  occ. eigenvalues --  -10.32592 -10.32485 -10.32244 -10.31566 -10.29630
 Alpha  occ. eigenvalues --  -10.29442 -10.28937 -10.28853 -10.28650 -10.28559
 Alpha  occ. eigenvalues --  -10.28502 -10.28472 -10.28289 -10.28190 -10.28124
 Alpha  occ. eigenvalues --  -10.28055 -10.28042 -10.27903 -10.27851 -10.27444
 Alpha  occ. eigenvalues --  -10.27349 -10.27113 -10.27069 -10.26765 -10.26490
 Alpha  occ. eigenvalues --  -10.26331 -10.26304 -10.26175 -10.26121 -10.26073
 Alpha  occ. eigenvalues --  -10.25803 -10.25707 -10.25614 -10.25553 -10.25452
 Alpha  occ. eigenvalues --  -10.25431 -10.25387 -10.25370 -10.25201 -10.25145
 Alpha  occ. eigenvalues --  -10.25111 -10.25092 -10.25083 -10.24920 -10.24918
 Alpha  occ. eigenvalues --  -10.24910 -10.24875 -10.24812 -10.24421 -10.24305
 Alpha  occ. eigenvalues --  -10.24211 -10.24166 -10.24014 -10.23954 -10.23909
 Alpha  occ. eigenvalues --  -10.23891 -10.23706 -10.23602 -10.23586 -10.23524
 Alpha  occ. eigenvalues --  -10.23367 -10.23332 -10.22827 -10.22538 -10.22538
 Alpha  occ. eigenvalues --  -10.22296  -3.14433  -3.13707  -1.87262  -1.86795
 Alpha  occ. eigenvalues --   -1.86673  -1.86518  -1.86092  -1.85949  -1.11604
 Alpha  occ. eigenvalues --   -1.11252  -1.05586  -1.04092  -1.03079  -1.02916
 Alpha  occ. eigenvalues --   -1.02653  -1.01994  -1.00123  -0.99511  -0.99413
 Alpha  occ. eigenvalues --   -0.98344  -0.98092  -0.97041  -0.96630  -0.95111
 Alpha  occ. eigenvalues --   -0.87493  -0.87100  -0.83680  -0.83477  -0.82924
 Alpha  occ. eigenvalues --   -0.82765  -0.82621  -0.82425  -0.82298  -0.81827
 Alpha  occ. eigenvalues --   -0.81780  -0.81581  -0.80806  -0.80351  -0.78949
 Alpha  occ. eigenvalues --   -0.78480  -0.78118  -0.77839  -0.76987  -0.76677
 Alpha  occ. eigenvalues --   -0.76222  -0.75959  -0.75706  -0.75255  -0.74801
 Alpha  occ. eigenvalues --   -0.74619  -0.72965  -0.72590  -0.71966  -0.71760
 Alpha  occ. eigenvalues --   -0.71202  -0.71025  -0.70588  -0.69719  -0.69634
 Alpha  occ. eigenvalues --   -0.69594  -0.67678  -0.67582  -0.66674  -0.66126
 Alpha  occ. eigenvalues --   -0.64174  -0.63850  -0.63632  -0.63138  -0.62860
 Alpha  occ. eigenvalues --   -0.62438  -0.61955  -0.61226  -0.60597  -0.60161
 Alpha  occ. eigenvalues --   -0.60136  -0.59815  -0.59660  -0.59465  -0.59301
 Alpha  occ. eigenvalues --   -0.58525  -0.57507  -0.55496  -0.54728  -0.54639
 Alpha  occ. eigenvalues --   -0.54564  -0.54062  -0.54010  -0.53627  -0.53480
 Alpha  occ. eigenvalues --   -0.53167  -0.52930  -0.52894  -0.52239  -0.52231
 Alpha  occ. eigenvalues --   -0.51062  -0.50783  -0.50431  -0.50166  -0.50113
 Alpha  occ. eigenvalues --   -0.49799  -0.49447  -0.49125  -0.48533  -0.48326
 Alpha  occ. eigenvalues --   -0.48325  -0.47978  -0.47781  -0.47588  -0.47570
 Alpha  occ. eigenvalues --   -0.47330  -0.47106  -0.46816  -0.46615  -0.46425
 Alpha  occ. eigenvalues --   -0.46325  -0.46223  -0.45994  -0.45938  -0.45884
 Alpha  occ. eigenvalues --   -0.45842  -0.45406  -0.45177  -0.45168  -0.44969
 Alpha  occ. eigenvalues --   -0.44795  -0.44589  -0.44531  -0.44492  -0.44416
 Alpha  occ. eigenvalues --   -0.44235  -0.44144  -0.44043  -0.43492  -0.43490
 Alpha  occ. eigenvalues --   -0.43284  -0.43265  -0.43165  -0.42783  -0.42688
 Alpha  occ. eigenvalues --   -0.42570  -0.42441  -0.42366  -0.42337  -0.42168
 Alpha  occ. eigenvalues --   -0.41943  -0.41762  -0.41667  -0.41560  -0.41383
 Alpha  occ. eigenvalues --   -0.41184  -0.41146  -0.40977  -0.40817  -0.40799
 Alpha  occ. eigenvalues --   -0.40700  -0.40383  -0.40167  -0.40076  -0.40064
 Alpha  occ. eigenvalues --   -0.39816  -0.39796  -0.39466  -0.39324  -0.39068
 Alpha  occ. eigenvalues --   -0.38580  -0.38448  -0.38444  -0.38363  -0.38363
 Alpha  occ. eigenvalues --   -0.38166  -0.38107  -0.37932  -0.37816  -0.37781
 Alpha  occ. eigenvalues --   -0.37777  -0.37657  -0.37257  -0.37235  -0.36827
 Alpha  occ. eigenvalues --   -0.36587  -0.36436  -0.36302  -0.36136  -0.36065
 Alpha  occ. eigenvalues --   -0.35933  -0.35927  -0.35712  -0.35539  -0.35292
 Alpha  occ. eigenvalues --   -0.35191  -0.35108  -0.34855  -0.34023  -0.33948
 Alpha  occ. eigenvalues --   -0.33755  -0.33719  -0.33234  -0.32813  -0.32721
 Alpha  occ. eigenvalues --   -0.32654  -0.32594  -0.32169  -0.31531  -0.31187
 Alpha  occ. eigenvalues --   -0.30873  -0.29932  -0.29853  -0.29686  -0.29284
 Alpha  occ. eigenvalues --   -0.29198  -0.28648  -0.28628  -0.27110  -0.27004
 Alpha  occ. eigenvalues --   -0.26126  -0.26074  -0.25724  -0.25544  -0.25268
 Alpha  occ. eigenvalues --   -0.25211  -0.24914  -0.24827  -0.21306  -0.21158
 Alpha  occ. eigenvalues --   -0.19093  -0.18956
 Alpha virt. eigenvalues --   -0.11720  -0.11362  -0.05806  -0.05232  -0.04275
 Alpha virt. eigenvalues --   -0.03938  -0.02208  -0.02052  -0.00572  -0.00562
 Alpha virt. eigenvalues --   -0.00201   0.00800   0.00883   0.01188   0.01672

 Mulliken charges:
               1
     1  Mg  12.002322
     2  C    5.990363
     3  C    6.010568
     4  C    6.015042
     5  C    5.993230
     6  N    6.994966
     7  C    6.024622
     8  C    5.988145
     9  C    6.008387
    10  C    5.974992
    11  C    6.001062
    12  C    5.998945
    13  C    5.996272
    14  H    1.008417
    15  N    7.000539
    16  C    5.966223
    17  C    5.971192
    18  C    5.987577
    19  C    5.972089
    20  C    6.002007
    21  C    5.988808
    22  O    7.969966
    23  C    6.006341
    24  N    7.001427
    25  C    5.967396
    26  C    6.013244
    27  C    5.987728
    28  C    6.030863
    29  C    6.002623
    30  C    5.994461
    31  C    6.000344
    32  N    7.000627
    33  C    6.034935
    34  C    6.027144
    35  C    6.004771
    36  C    6.024791
    37  C    5.999909
    38  C    6.016030
    39  O    8.032403
    40  C    5.999636
    41  C    6.000833
    42  O    8.008015
    43  O    7.999669
    44  C    5.997975
    45  H    0.991874
    46  H    0.993410
    47  H    1.009500
    48  H    1.002604
    49  H    1.000168
    50  H    1.002884
    51  H    1.000059
    52  H    0.987644
    53  H    1.009049
    54  H    0.997395
    55  H    0.997092
    56  H    0.997954
    57  H    0.980426
    58  H    0.986085
    59  H    0.980746
    60  H    0.986555
    61  H    0.990047
    62  H    0.992286
    63  H    0.997524
    64  H    1.003312
    65  H    0.989597
    66  H    1.001748
    67  H    1.001536
    68  H    1.000641
    69  H    1.011130
    70  H    0.995152
    71  H    1.004968
    72  H    1.000116
    73  H    1.017346
    74  H    1.017857
    75  H    1.012676
    76  H    1.010967
    77  H    1.002127
    78  H    1.006065
    79  H    1.004561
    80  Mg  12.000009
    81  C    6.000025
    82  C    6.000040
    83  C    5.999971
    84  C    5.999947
    85  N    7.000036
    86  C    6.000039
    87  C    6.000002
    88  C    6.000037
    89  C    5.999931
    90  C    6.000009
    91  C    5.999968
    92  C    5.999992
    93  H    1.000041
    94  N    7.000001
    95  C    5.999870
    96  C    5.999974
    97  C    5.999950
    98  C    5.999951
    99  C    6.000023
   100  C    5.999941
   101  O    7.999915
   102  C    6.000004
   103  N    6.999948
   104  C    5.999960
   105  C    6.000033
   106  C    5.999952
   107  C    6.000080
   108  C    6.000001
   109  C    6.000000
   110  C    5.999998
   111  N    7.000031
   112  C    6.000109
   113  C    6.000090
   114  C    6.000003
   115  C    6.000018
   116  C    5.999972
   117  C    6.000087
   118  O    8.000088
   119  C    5.999981
   120  C    6.000022
   121  O    8.000019
   122  O    8.000010
   123  C    5.999988
   124  H    0.999966
   125  H    0.999979
   126  H    1.000025
   127  H    1.000006
   128  H    0.999992
   129  H    1.000005
   130  H    0.999992
   131  H    0.999970
   132  H    1.000033
   133  H    0.999984
   134  H    0.999999
   135  H    1.000008
   136  H    0.999938
   137  H    0.999928
   138  H    0.999938
   139  H    0.999965
   140  H    0.999945
   141  H    0.999978
   142  H    0.999990
   143  H    1.000006
   144  H    0.999981
   145  H    1.000016
   146  H    0.999980
   147  H    0.999988
   148  H    1.000027
   149  H    1.000001
   150  H    1.000010
   151  H    1.000004
   152  H    1.000051
   153  H    1.000065
   154  H    1.000056
   155  H    1.000046
   156  H    1.000018
   157  H    1.000014
   158  H    1.000032
 Sum of Mulliken charges = 624.00000

 Dipole moment (field-independent basis, Debye):
    X=              0.8887    Y=            -10.5960    Z=              0.6967  Tot=             10.6560
 Quadrupole moment (field-independent basis, Debye-Ang):
   XX=             54.1574   YY=            -12.0150   ZZ=              3.0020
   XY=           -317.9460   XZ=             22.1217   YZ=             -2.4463

 Normal termination of Gaussian 16 at Fri Oct 15 13:01:37 2021.
