 Gaussian 16, Revision A.03,
 Gaussian 16:  ES64L-G16RevA.03 25-Dec-2016

 --------------------------------------------------------
 #p PBE1PBE/Def2SVP td=(nstates=5) density=(transition=1)
 --------------------------------------------------------

 --------------------------------
 TDDFT excited states in gaussian
 --------------------------------
 Symbolic Z-matrix:
 Charge =  0 Multiplicity = 1

                         Standard orientation:
 ---------------------------------------------------------------------
 Center     Atomic      Atomic             Coordinates (Angstroms)
 Number     Number       Type             X           Y           Z
 ---------------------------------------------------------------------
      1         12           0       29.733381    0.054517   -0.317131
      2          6           0       26.498222   -0.305953    1.086625
      3          6           0       28.585321    2.798562   -1.954138
      4          6           0       32.975537    0.842302   -0.970739
      5          6           0       30.829198   -2.436578    1.829115
      6          7           0       27.750715    1.134248   -0.218240
      7          6           0       26.536167    0.792076    0.314558
      8          6           0       25.462120    1.727189   -0.101296
      9          6           0       26.114923    2.501529   -1.341025
     10          6           0       27.553967    2.152808   -1.169690
     11          6           0       25.519748    2.053695   -2.666241
     12          6           0       25.080665    2.561453    1.131635
     13          6           0       23.551840    2.588614    1.555745
     14          1           0       22.780911    3.932815    1.721568
     15          7           0       30.706735    1.552580   -1.346181
     16          6           0       30.016109    2.558970   -2.035552
     17          6           0       30.969533    3.274935   -2.828852
     18          6           0       32.282703    2.763072   -2.554618
     19          6           0       32.014565    1.619352   -1.642178
     20          6           0       30.521760    4.374154   -3.783636
     21          6           0       33.616966    3.230671   -3.091601
     22          8           0       33.516459    4.125736   -3.979990
     23          6           0       35.046434    2.837194   -2.622975
     24          7           0       31.678475   -0.693828    0.326776
     25          6           0       32.863194   -0.217352   -0.115178
     26          6           0       34.084920   -0.932189    0.520516
     27          6           0       33.378402   -2.066739    1.339847
     28          6           0       31.835006   -1.667678    1.192976
     29          6           0       35.008547   -1.435652   -0.574190
     30          6           0       33.769230   -2.155546    2.783501
     31          6           0       34.544594   -3.397936    3.128759
     32          7           0       28.913272   -1.245842    1.005132
     33          6           0       29.431020   -2.273139    1.804108
     34          6           0       28.439002   -3.033497    2.373166
     35          6           0       27.255810   -2.321194    2.089788
     36          6           0       27.608989   -1.209684    1.328055
     37          6           0       28.677627   -4.387543    3.007175
     38          6           0       25.775951   -2.370227    2.228175
     39          8           0       25.093740   -3.195782    2.751173
     40          6           0       25.318490   -0.986563    1.629441
     41          6           0       24.058655   -1.246035    0.832489
     42          8           0       22.921569   -0.961314    1.208541
     43          8           0       24.379787   -1.812737   -0.424878
     44          6           0       23.205743   -1.966405   -1.283504
     45          1           0       28.186564    3.538806   -2.651271
     46          1           0       34.025126    0.996423   -1.232002
     47          1           0       31.120578   -3.063567    2.673603
     48          1           0       24.589667    1.157544   -0.421596
     49          1           0       25.910461    3.565148   -1.221450
     50          1           0       25.300207    0.987466   -2.700520
     51          1           0       26.268992    2.202564   -3.444498
     52          1           0       24.648513    2.631462   -2.974759
     53          1           0       25.404246    3.583787    0.936650
     54          1           0       25.666907    2.327866    2.020377
     55          1           0       23.622578    2.111485    2.533557
     56          1           0       22.981758    1.853201    0.989275
     57          1           0       29.875443    5.092465   -3.279225
     58          1           0       29.934762    3.879759   -4.557563
     59          1           0       31.291835    5.025830   -4.198715
     60          1           0       35.136355    1.801296   -2.948416
     61          1           0       35.087943    2.913104   -1.536352
     62          1           0       35.817318    3.486241   -3.039252
     63          1           0       34.689520   -0.292749    1.163196
     64          1           0       33.457153   -3.013512    0.806125
     65          1           0       35.208930   -0.601243   -1.246496
     66          1           0       34.492580   -2.230735   -1.113402
     67          1           0       35.935402   -1.939531   -0.302684
     68          1           0       32.919595   -2.180925    3.465838
     69          1           0       34.353772   -1.328175    3.185349
     70          1           0       35.470279   -3.089788    3.613253
     71          1           0       34.867383   -3.953056    2.247992
     72          1           0       33.990653   -4.117938    3.732071
     73          1           0       27.702084   -4.872669    3.053079
     74          1           0       29.091805   -4.306962    4.011911
     75          1           0       29.379697   -4.884915    2.338353
     76          1           0       24.949592   -0.471647    2.517256
     77          1           0       23.494647   -1.937689   -2.334215
     78          1           0       22.543734   -1.104792   -1.209637
     79          1           0       22.623910   -2.860182   -1.056589
     80         12           0      -29.795909    0.246967    0.217263
     81          6           0      -26.814583   -1.574171   -0.297885
     82          6           0      -31.323591   -1.577127   -2.235701
     83          6           0      -32.273155    2.421008    0.300244
     84          6           0      -27.966905    2.380049    2.383031
     85          7           0      -29.141207   -1.473939   -1.026430
     86          6           0      -27.937690   -2.012040   -1.039225
     87          6           0      -28.020313   -3.345104   -1.760691
     88          6           0      -29.254146   -3.156414   -2.724965
     89          6           0      -29.980407   -1.980721   -1.970996
     90          6           0      -28.790085   -2.894074   -4.208062
     91          6           0      -28.303237   -4.525925   -0.796804
     92          6           0      -27.912016   -5.969921   -1.340611
     93          1           0      -27.328351   -6.177534   -2.740750
     94          7           0      -31.604243    0.283427   -0.655251
     95          6           0      -32.136848   -0.607178   -1.622355
     96          6           0      -33.538972   -0.212222   -1.892852
     97          6           0      -33.785592    1.026193   -1.198348
     98          6           0      -32.547321    1.335904   -0.451115
     99          6           0      -34.472181   -0.999535   -2.743364
    100          6           0      -35.048362    1.967740   -1.099251
    101          8           0      -35.115210    2.965139   -0.367983
    102          6           0      -36.189595    1.727900   -2.044662
    103          7           0      -30.046447    2.221723    1.126238
    104          6           0      -31.172836    2.879998    1.054988
    105          6           0      -31.220629    4.157600    1.845279
    106          6           0      -29.810172    4.169742    2.532861
    107          6           0      -29.245565    2.789511    2.068818
    108          6           0      -31.627855    5.350452    0.975348
    109          6           0      -29.842610    4.268622    4.052833
    110          6           0      -28.757070    5.184761    4.723280
    111          7           0      -27.786597    0.402562    1.021696
    112          6           0      -27.216136    1.313386    1.932371
    113          6           0      -25.915174    0.855356    2.280598
    114          6           0      -25.617739   -0.164918    1.321760
    115          6           0      -26.774639   -0.429744    0.633627
    116          6           0      -25.096603    1.341444    3.442107
    117          6           0      -24.682803   -1.204186    0.827536
    118          8           0      -23.537930   -1.441582    1.152139
    119          6           0      -25.385352   -1.946776   -0.406471
    120          6           0      -24.926851   -3.365284   -0.499770
    121          8           0      -25.071839   -4.218918    0.324824
    122          8           0      -24.184047   -3.586659   -1.674541
    123          6           0      -23.124147   -4.614724   -1.602840
    124          1           0      -31.810355   -1.977764   -3.127811
    125          1           0      -33.082011    3.123209    0.509788
    126          1           0      -27.457489    3.013583    3.112232
    127          1           0      -27.009325   -3.473232   -2.147316
    128          1           0      -29.899148   -4.035731   -2.727810
    129          1           0      -27.702240   -2.879004   -4.265918
    130          1           0      -29.082805   -1.858901   -4.383787
    131          1           0      -29.131207   -3.634901   -4.931297
    132          1           0      -29.382832   -4.492357   -0.644744
    133          1           0      -27.793737   -4.301963    0.140332
    134          1           0      -28.829014   -6.553019   -1.242986
    135          1           0      -27.221989   -6.366396   -0.595385
    136          1           0      -34.185321   -2.001538   -3.060393
    137          1           0      -34.678073   -0.509820   -3.694734
    138          1           0      -35.360433   -1.104670   -2.119923
    139          1           0      -36.921467    1.005399   -1.683788
    140          1           0      -35.625101    1.396120   -2.916948
    141          1           0      -36.629510    2.706392   -2.235383
    142          1           0      -32.001090    3.937469    2.573535
    143          1           0      -29.155598    4.968294    2.185817
    144          1           0      -31.398911    5.223986   -0.083255
    145          1           0      -31.019495    6.181174    1.330791
    146          1           0      -32.688645    5.588482    1.056924
    147          1           0      -29.730959    3.286859    4.512711
    148          1           0      -30.883547    4.501715    4.276425
    149          1           0      -28.020863    5.528501    3.996883
    150          1           0      -28.259972    4.531833    5.440389
    151          1           0      -29.081620    6.065947    5.277682
    152          1           0      -25.126405    2.428578    3.367371
    153          1           0      -24.053767    1.024093    3.427388
    154          1           0      -25.585035    1.071599    4.378981
    155          1           0      -24.974543   -1.542153   -1.330913
    156          1           0      -23.397677   -5.421944   -2.282471
    157          1           0      -22.976099   -4.987613   -0.588765
    158          1           0      -22.219737   -4.114883   -1.949592
 ---------------------------------------------------------------------

 SCF Done:  E(RPBE1PBE) =  -4067.36386319     A.U. after   17 cycles

 Excitation energies and oscillator strengths:

 Excited State   1:      Singlet-A      1.8485 eV  670.72 nm  f=0.3421  <S**2>=0.000
     309 -> 316        0.16638
     311 -> 313        0.69424
     311 <- 313       -0.11258
 This state for optimization and/or second-order correction.
 Total Energy, E(TD-HF/TD-DFT) =  -4067.29593153
 Copying the excited state density for this state as the 1-particle RhoCI density.

 Excited State   2:      Singlet-A      1.8821 eV  658.76 nm  f=0.0000  <S**2>=0.000
     312 -> 313        0.70711

 Excited State   3:      Singlet-A      1.8894 eV  656.20 nm  f=0.3615  <S**2>=0.000
     310 -> 315       -0.18739
     312 -> 314        0.68566

 Excited State   4:      Singlet-A      2.1350 eV  580.72 nm  f=0.0939  <S**2>=0.000
     310 -> 314        0.65947
     312 -> 315        0.23134

 Excited State   5:      Singlet-A      2.1830 eV  567.96 nm  f=0.0000  <S**2>=0.000
     311 -> 314        0.70711

 The electronic state is 1-A.
 Alpha  occ. eigenvalues --  -46.92411 -46.91925 -19.26284 -19.24055 -19.21259
 Alpha  occ. eigenvalues --  -19.20185 -19.20095 -19.19871 -19.18903 -19.18519
 Alpha  occ. eigenvalues --  -14.41925 -14.41682 -14.41469 -14.41126 -14.39704
 Alpha  occ. eigenvalues --  -14.39299 -14.38726 -14.37903 -10.37413 -10.35683
 Alpha  occ. eigenvalues --  -10.33615 -10.32833 -10.32674 -10.32271 -10.29682
 Alpha  occ. eigenvalues --  -10.29643 -10.28908 -10.28895 -10.28793 -10.28533
 Alpha  occ. eigenvalues --  -10.28299 -10.28280 -10.28280 -10.28193 -10.28167
 Alpha  occ. eigenvalues --  -10.28036 -10.27990 -10.27842 -10.27767 -10.26789
 Alpha  occ. eigenvalues --  -10.26648 -10.26493 -10.26326 -10.26264 -10.26185
 Alpha  occ. eigenvalues --  -10.26182 -10.26121 -10.26025 -10.26014 -10.25963
 Alpha  occ. eigenvalues --  -10.25938 -10.25928 -10.25847 -10.25817 -10.25771
 Alpha  occ. eigenvalues --  -10.25528 -10.25523 -10.25435 -10.25432 -10.25419
 Alpha  occ. eigenvalues --  -10.25298 -10.25171 -10.25093 -10.25037 -10.24669
 Alpha  occ. eigenvalues --  -10.24643 -10.24619 -10.24576 -10.24347 -10.24054
 Alpha  occ. eigenvalues --  -10.23958 -10.23930 -10.23902 -10.23820 -10.23766
 Alpha  occ. eigenvalues --  -10.23659 -10.23565 -10.23469 -10.23385 -10.23319
 Alpha  occ. eigenvalues --  -10.23247 -10.22898 -10.22866 -10.22803 -10.22618
 Alpha  occ. eigenvalues --  -10.22573  -3.14554  -3.13969  -1.87374  -1.86933
 Alpha  occ. eigenvalues --   -1.86822  -1.86782  -1.86342  -1.86189  -1.10339
 Alpha  occ. eigenvalues --   -1.10057  -1.06852  -1.04870  -1.04591  -1.02797
 Alpha  occ. eigenvalues --   -1.02312  -1.01952  -0.99879  -0.99695  -0.99119
 Alpha  occ. eigenvalues --   -0.98949  -0.97993  -0.97404  -0.96670  -0.95284
 Alpha  occ. eigenvalues --   -0.87693  -0.86356  -0.84199  -0.83635  -0.83563
 Alpha  occ. eigenvalues --   -0.83362  -0.83092  -0.82191  -0.81988  -0.81606
 Alpha  occ. eigenvalues --   -0.81482  -0.81415  -0.80238  -0.80061  -0.79102
 Alpha  occ. eigenvalues --   -0.78616  -0.78181  -0.78113  -0.76935  -0.76787
 Alpha  occ. eigenvalues --   -0.76100  -0.75923  -0.75057  -0.75017  -0.74830
 Alpha  occ. eigenvalues --   -0.74218  -0.72719  -0.72144  -0.71750  -0.71509
 Alpha  occ. eigenvalues --   -0.71185  -0.70800  -0.70799  -0.69869  -0.69767
 Alpha  occ. eigenvalues --   -0.69415  -0.67989  -0.67013  -0.66673  -0.66150
 Alpha  occ. eigenvalues --   -0.64208  -0.63781  -0.63378  -0.62991  -0.62121
 Alpha  occ. eigenvalues --   -0.61763  -0.61682  -0.60966  -0.60696  -0.60419
 Alpha  occ. eigenvalues --   -0.60154  -0.59943  -0.59590  -0.59502  -0.59055
 Alpha  occ. eigenvalues --   -0.58059  -0.57683  -0.55732  -0.55079  -0.54628
 Alpha  occ. eigenvalues --   -0.54515  -0.54212  -0.53757  -0.53645  -0.53105
 Alpha  occ. eigenvalues --   -0.52718  -0.52671  -0.52206  -0.51500  -0.51382
 Alpha  occ. eigenvalues --   -0.50923  -0.50834  -0.50340  -0.50212  -0.50045
 Alpha  occ. eigenvalues --   -0.49742  -0.49432  -0.48981  -0.48772  -0.48451
 Alpha  occ. eigenvalues --   -0.48229  -0.47810  -0.47775  -0.47738  -0.47664
 Alpha  occ. eigenvalues --   -0.47392  -0.47381  -0.46837  -0.46779  -0.46622
 Alpha  occ. eigenvalues --   -0.46517  -0.46315  -0.46203  -0.45936  -0.45733
 Alpha  occ. eigenvalues --   -0.45720  -0.45522  -0.45353  -0.45151  -0.45045
 Alpha  occ. eigenvalues --   -0.44845  -0.44836  -0.44674  -0.44516  -0.44498
 Alpha  occ. eigenvalues --   -0.44276  -0.44023  -0.43716  -0.43588  -0.43298
 Alpha  occ. eigenvalues --   -0.43002  -0.42974  -0.42950  -0.42673  -0.42649
 Alpha  occ. eigenvalues --   -0.42472  -0.42422  -0.42164  -0.41953  -0.41888
 Alpha  occ. eigenvalues --   -0.41762  -0.41631  -0.41327  -0.41171  -0.41073
 Alpha  occ. eigenvalues --   -0.41044  -0.40912  -0.40821  -0.40652  -0.40478
 Alpha  occ. eigenvalues --   -0.40384  -0.40303  -0.40208  -0.40081  -0.39945
 Alpha  occ. eigenvalues --   -0.39857  -0.39753  -0.39678  -0.39131  -0.38945
 Alpha  occ. eigenvalues --   -0.38678  -0.38656  -0.38531  -0.38486  -0.38139
 Alpha  occ. eigenvalues --   -0.38031  -0.37963  -0.37568  -0.37521  -0.37396
 Alpha  occ. eigenvalues --   -0.37320  -0.37265  -0.37212  -0.36980  -0.36903
 Alpha  occ. eigenvalues --   -0.36859  -0.36573  -0.36564  -0.36443  -0.36404
 Alpha  occ. eigenvalues --   -0.36286  -0.36211  -0.36032  -0.36010  -0.35852
 Alpha  occ. eigenvalues --   -0.35115  -0.35053  -0.34904  -0.34048  -0.33963
 Alpha  occ. eigenvalues --   -0.33761  -0.33657  -0.33198  -0.32767  -0.32750
 Alpha  occ. eigenvalues --   -0.32527  -0.32388  -0.32196  -0.31458  -0.31452
 Alpha  occ. eigenvalues --   -0.30818  -0.30404  -0.30297  -0.29853  -0.29388
 Alpha  occ. eigenvalues --   -0.29025  -0.28852  -0.28436  -0.27420  -0.26656
 Alpha  occ. eigenvalues --   -0.26363  -0.26158  -0.25765  -0.25669  -0.25485
 Alpha  occ. eigenvalues --   -0.25346  -0.25099  -0.24253  -0.21376  -0.20579
 Alpha  occ. eigenvalues --   -0.19274  -0.18884
 Alpha virt. eigenvalues --   -0.11742  -0.11030  -0.05497  -0.05366  -0.04183
 Alpha virt. eigenvalues --   -0.03980  -0.02112  -0.01752  -0.00949  -0.00465
 Alpha virt. eigenvalues --   -0.00010   0.00262   0.00723   0.01335   0.01398

 Mulliken charges:
               1
     1  Mg  12.001275
     2  C    5.977198
     3  C    5.993099
     4  C    6.033281
     5  C    6.019001
     6  N    6.973262
     7  C    6.026281
     8  C    5.990609
     9  C    6.015151
    10  C    5.976638
    11  C    6.004140
    12  C    5.995820
    13  C    6.000325
    14  H    1.004847
    15  N    7.006123
    16  C    5.966931
    17  C    5.979562
    18  C    5.992475
    19  C    5.959954
    20  C    6.002500
    21  C    5.988350
    22  O    7.981374
    23  C    5.997658
    24  N    7.017378
    25  C    5.963521
    26  C    6.009820
    27  C    5.994042
    28  C    6.018719
    29  C    6.002977
    30  C    5.994873
    31  C    5.998216
    32  N    7.000357
    33  C    6.022304
    34  C    6.027798
    35  C    6.003252
    36  C    6.032992
    37  C    6.000767
    38  C    6.019012
    39  O    8.024689
    40  C    6.002300
    41  C    6.003508
    42  O    8.006053
    43  O    7.998345
    44  C    5.997269
    45  H    0.985679
    46  H    0.998506
    47  H    1.014543
    48  H    0.997980
    49  H    0.995157
    50  H    0.986057
    51  H    1.004426
    52  H    0.990039
    53  H    1.009645
    54  H    0.996407
    55  H    0.995449
    56  H    0.998430
    57  H    0.984247
    58  H    0.983396
    59  H    0.986477
    60  H    0.990623
    61  H    0.990581
    62  H    0.990279
    63  H    1.000048
    64  H    1.001775
    65  H    1.008188
    66  H    0.995725
    67  H    0.994455
    68  H    0.995461
    69  H    1.010041
    70  H    1.006718
    71  H    1.004912
    72  H    0.998163
    73  H    1.013321
    74  H    1.018491
    75  H    1.014370
    76  H    1.004697
    77  H    1.006336
    78  H    1.005240
    79  H    1.000092
    80  Mg  11.999995
    81  C    6.000043
    82  C    5.999913
    83  C    5.999998
    84  C    6.000045
    85  N    6.999941
    86  C    5.999948
    87  C    6.000011
    88  C    5.999955
    89  C    6.000153
    90  C    6.000002
    91  C    6.000014
    92  C    6.000009
    93  H    0.999990
    94  N    7.000028
    95  C    6.000079
    96  C    6.000149
    97  C    6.000012
    98  C    6.000024
    99  C    5.999956
   100  C    6.000024
   101  O    8.000102
   102  C    5.999980
   103  N    7.000052
   104  C    6.000073
   105  C    5.999964
   106  C    6.000040
   107  C    5.999878
   108  C    5.999982
   109  C    6.000014
   110  C    6.000004
   111  N    6.999960
   112  C    5.999936
   113  C    5.999906
   114  C    6.000004
   115  C    5.999959
   116  C    6.000007
   117  C    5.999904
   118  O    7.999885
   119  C    6.000021
   120  C    5.999959
   121  O    7.999979
   122  O    8.000004
   123  C    6.000021
   124  H    1.000020
   125  H    1.000028
   126  H    0.999982
   127  H    1.000013
   128  H    1.000009
   129  H    1.000030
   130  H    1.000005
   131  H    1.000007
   132  H    0.999963
   133  H    1.000014
   134  H    0.999984
   135  H    0.999989
   136  H    1.000053
   137  H    1.000070
   138  H    1.000044
   139  H    1.000032
   140  H    1.000009
   141  H    1.000053
   142  H    0.999994
   143  H    1.000000
   144  H    1.000004
   145  H    1.000041
   146  H    0.999999
   147  H    0.999993
   148  H    0.999973
   149  H    1.000009
   150  H    0.999995
   151  H    0.999994
   152  H    0.999959
   153  H    0.999949
   154  H    0.999934
   155  H    0.999982
   156  H    0.999977
   157  H    0.999980
   158  H    0.999986
 Sum of Mulliken charges = 624.00000

 Dipole moment (field-independent basis, Debye):
    X=             -2.8018    Y=             -7.2643    Z=              6.0826  Tot=              9.8802
 Quadrupole moment (field-independent basis, Debye-Ang):
   XX=           -161.7308   YY=             -1.4961   ZZ=             -2.9320
   XY=           -217.0758   XZ=            183.1163   YZ=              2.7565

 Normal termination of Gaussian 16 at Thu Oct 14 22:17:53 2021.
