 Gaussian 16, Revision A.03,
 Gaussian 16:  ES64L-G16RevA.03 25-Dec-2016

 --------------------------------------------------------
 #p PBE1PBE/Def2SVP td=(nstates=5) density=(transition=1)
 --------------------------------------------------------

 --------------------------------
 TDDFT excited states in gaussian
 --------------------------------
 Symbolic Z-matrix:
 Charge =  0 Multiplicity = 1

                         Standard orientation:
 ---------------------------------------------------------------------
 Center     Atomic      Atomic             Coordinates (Angstroms)
 Number     Number       Type             X           Y           Z
 ---------------------------------------------------------------------
      1         12           0      -30.095568   -0.068235    0.420845
      2          6           0      -27.573530   -1.229578   -1.716455
      3          6           0      -31.376157    1.818509   -2.287712
      4          6           0      -32.338408    1.342113    2.544537
      5          6           0      -28.327799   -1.353519    3.093683
      6          7           0      -29.611214    0.090610   -1.736025
      7          6           0      -28.619020   -0.646730   -2.388618
      8          6           0      -28.893104   -0.621913   -3.935528
      9          6           0      -30.021509    0.408739   -4.057151
     10          6           0      -30.341170    0.851733   -2.586768
     11          6           0      -29.568446    1.606449   -4.934909
     12          6           0      -29.218831   -2.037980   -4.394499
     13          6           0      -28.894889   -2.415982   -5.830593
     14          1           0      -28.556944   -1.283611   -6.826545
     15          7           0      -31.661770    1.365675    0.210235
     16          6           0      -32.004748    2.042570   -0.975619
     17          6           0      -33.089527    2.977729   -0.734513
     18          6           0      -33.474788    2.843239    0.657291
     19          6           0      -32.466234    1.834974    1.199727
     20          6           0      -33.799127    3.780799   -1.832141
     21          6           0      -34.584813    3.507172    1.449298
     22          8           0      -34.750259    3.232542    2.630361
     23          6           0      -35.585853    4.320629    0.722685
     24          7           0      -30.314563   -0.090852    2.541617
     25          6           0      -31.377892    0.494521    3.159743
     26          6           0      -31.388836    0.106405    4.661501
     27          6           0      -30.127761   -0.824064    4.845533
     28          6           0      -29.580289   -0.875583    3.395681
     29          6           0      -31.365402    1.369232    5.541180
     30          6           0      -30.441969   -2.260780    5.340745
     31          6           0      -30.127776   -2.357252    6.830473
     32          7           0      -28.254301   -1.005888    0.749765
     33          6           0      -27.606807   -1.417631    1.866546
     34          6           0      -26.237210   -1.817665    1.461649
     35          6           0      -26.207831   -1.866002    0.098655
     36          6           0      -27.456784   -1.313457   -0.283980
     37          6           0      -25.211289   -2.280698    2.482346
     38          6           0      -25.437752   -2.229098   -1.098461
     39          8           0      -24.301374   -2.679357   -1.180638
     40          6           0      -26.342958   -1.905289   -2.271288
     41          6           0      -25.524245   -1.096130   -3.187854
     42          8           0      -25.207329    0.099868   -3.134106
     43          8           0      -25.052166   -1.939155   -4.172995
     44          6           0      -24.159510   -1.359224   -5.152778
     45          1           0      -31.789567    2.320655   -3.164608
     46          1           0      -33.157996    1.757138    3.134922
     47          1           0      -27.790376   -1.651344    3.996502
     48          1           0      -27.934047   -0.249075   -4.297144
     49          1           0      -30.797613   -0.070745   -4.653609
     50          1           0      -29.438229    2.546280   -4.398114
     51          1           0      -30.431162    1.875488   -5.543710
     52          1           0      -28.633379    1.404424   -5.456981
     53          1           0      -30.273490   -2.161462   -4.146561
     54          1           0      -28.732225   -2.744767   -3.723396
     55          1           0      -29.712792   -3.018457   -6.223446
     56          1           0      -28.042433   -3.080277   -5.684411
     57          1           0      -33.318526    3.716113   -2.808512
     58          1           0      -33.834323    4.835377   -1.555532
     59          1           0      -34.845629    3.479507   -1.859795
     60          1           0      -36.146262    3.665366    0.055382
     61          1           0      -35.132674    5.219675    0.305086
     62          1           0      -36.359019    4.701745    1.389890
     63          1           0      -32.336115   -0.393054    4.863441
     64          1           0      -29.443462   -0.251047    5.472587
     65          1           0      -30.546138    1.451953    6.254781
     66          1           0      -32.283204    1.201108    6.104222
     67          1           0      -31.285597    2.305546    4.989582
     68          1           0      -29.705669   -2.963333    4.949979
     69          1           0      -31.470454   -2.573419    5.159262
     70          1           0      -31.007806   -2.847974    7.245933
     71          1           0      -30.127002   -1.399949    7.351131
     72          1           0      -29.223431   -2.911092    7.084043
     73          1           0      -25.465666   -2.079931    3.523383
     74          1           0      -24.222197   -1.861209    2.302552
     75          1           0      -25.204509   -3.371244    2.485137
     76          1           0      -26.651109   -2.848801   -2.720591
     77          1           0      -23.371308   -0.836383   -4.610438
     78          1           0      -24.648283   -0.651281   -5.822478
     79          1           0      -23.579105   -2.202382   -5.525825
     80         12           0       30.082837    0.389765   -0.440827
     81          6           0       27.186946   -1.607730    0.244908
     82          6           0       28.047554    3.229185    0.119877
     83          6           0       32.871133    2.252210   -0.310465
     84          6           0       31.990273   -2.482511   -0.282409
     85          7           0       27.849094    0.794026    0.112979
     86          6           0       26.955650   -0.211949    0.353708
     87          6           0       25.697172    0.363654    0.983599
     88          6           0       25.940861    1.893188    0.642240
     89          6           0       27.364300    2.050911    0.264137
     90          6           0       25.033351    2.535360   -0.460160
     91          6           0       25.590548   -0.084191    2.476652
     92          6           0       24.206553   -0.600244    3.048514
     93          1           0       23.524046    0.162843    4.197971
     94          7           0       30.427010    2.387922   -0.334804
     95          6           0       29.475810    3.419885   -0.119751
     96          6           0       30.122821    4.718818   -0.137197
     97          6           0       31.539420    4.412818   -0.256248
     98          6           0       31.638159    2.966434   -0.314206
     99          6           0       29.372498    5.962377    0.101013
    100          6           0       32.623866    5.502050   -0.326271
    101          8           0       32.230202    6.694671   -0.169587
    102          6           0       34.127818    5.255176   -0.570136
    103          7           0       32.205623    0.009373   -0.045317
    104          6           0       33.152999    0.910795   -0.219225
    105          6           0       34.479744    0.243512   -0.050946
    106          6           0       34.151428   -1.272482   -0.106560
    107          6           0       32.654432   -1.275602   -0.057839
    108          6           0       35.686826    0.624005   -1.010874
    109          6           0       34.810267   -2.164857    1.067548
    110          6           0       35.852746   -3.242182    0.680176
    111          7           0       29.713505   -1.610572   -0.297395
    112          6           0       30.562785   -2.650650   -0.246916
    113          6           0       29.871962   -3.881813   -0.124916
    114          6           0       28.534426   -3.508117    0.024781
    115          6           0       28.477929   -2.093023   -0.042905
    116          6           0       30.361875   -5.273941   -0.139592
    117          6           0       27.246436   -4.085513    0.256643
    118          8           0       26.963793   -5.248371    0.439458
    119          6           0       26.256280   -2.772900    0.465302
    120          6           0       25.181734   -2.794951   -0.534257
    121          8           0       25.321496   -3.059898   -1.735002
    122          8           0       24.023756   -2.438029    0.123172
    123          6           0       22.805397   -2.395971   -0.683756
    124          1           0       27.472670    4.142954    0.277902
    125          1           0       33.806584    2.796348   -0.166960
    126          1           0       32.517181   -3.423461   -0.455047
    127          1           0       24.868349    0.050672    0.348102
    128          1           0       25.838103    2.287299    1.653971
    129          1           0       25.693785    2.939389   -1.228754
    130          1           0       24.425408    3.368744   -0.108748
    131          1           0       24.385752    1.843500   -0.999586
    132          1           0       25.862365    0.854113    2.959671
    133          1           0       26.329254   -0.812917    2.809616
    134          1           0       24.399004   -1.631635    3.343401
    135          1           0       23.531051   -0.753631    2.207474
    136          1           0       28.822004    5.813300    1.030198
    137          1           0       28.617640    6.095227   -0.673720
    138          1           0       29.920577    6.904255    0.065464
    139          1           0       34.544163    4.804993    0.331178
    140          1           0       34.478706    6.184333   -1.017980
    141          1           0       34.120339    4.518938   -1.374584
    142          1           0       34.846199    0.528052    0.934608
    143          1           0       34.399985   -1.514045   -1.140063
    144          1           0       36.576600    0.445657   -0.406537
    145          1           0       35.569612    1.663343   -1.317297
    146          1           0       35.649457   -0.076963   -1.844931
    147          1           0       33.947775   -2.614694    1.559059
    148          1           0       35.193751   -1.477728    1.821686
    149          1           0       35.643690   -4.212491    1.128641
    150          1           0       36.839462   -2.896204    0.989198
    151          1           0       35.968686   -3.372684   -0.395917
    152          1           0       29.560760   -5.981849   -0.349777
    153          1           0       30.705726   -5.314962    0.894100
    154          1           0       31.311501   -5.289843   -0.674287
    155          1           0       25.932933   -2.681778    1.501624
    156          1           0       22.661315   -3.318942   -1.245879
    157          1           0       22.838956   -1.538386   -1.357325
    158          1           0       21.950092   -2.287828   -0.016735
 ---------------------------------------------------------------------

 SCF Done:  E(RPBE1PBE) =  -4067.35489515     A.U. after   16 cycles

 Excitation energies and oscillator strengths:

 Excited State   1:      Singlet-A      1.8263 eV  678.86 nm  f=0.3808  <S**2>=0.000
     310 -> 316       -0.16178
     312 -> 314        0.69457
     312 <- 314       -0.11149
 This state for optimization and/or second-order correction.
 Total Energy, E(TD-HF/TD-DFT) =  -4067.28777817
 Copying the excited state density for this state as the 1-particle RhoCI density.

 Excited State   2:      Singlet-A      1.8632 eV  665.42 nm  f=0.3800  <S**2>=0.000
     309 -> 315       -0.18035
     311 -> 313        0.69249
     311 <- 313       -0.10916

 Excited State   3:      Singlet-A      1.9092 eV  649.41 nm  f=0.0000  <S**2>=0.000
     312 -> 313        0.70711

 Excited State   4:      Singlet-A      2.0665 eV  599.98 nm  f=0.0000  <S**2>=0.000
     311 -> 314        0.70711

 Excited State   5:      Singlet-A      2.2008 eV  563.37 nm  f=0.1155  <S**2>=0.000
     310 -> 314        0.65561
     312 -> 316        0.24482

 The electronic state is 1-A.
 Alpha  occ. eigenvalues --  -46.92522 -46.92276 -19.26841 -19.25165 -19.20704
 Alpha  occ. eigenvalues --  -19.20078 -19.19951 -19.19647 -19.19231 -19.18410
 Alpha  occ. eigenvalues --  -14.41721 -14.41374 -14.41266 -14.40952 -14.39695
 Alpha  occ. eigenvalues --  -14.39589 -14.39433 -14.38939 -10.37011 -10.36423
 Alpha  occ. eigenvalues --  -10.32671 -10.32567 -10.32463 -10.32407 -10.29601
 Alpha  occ. eigenvalues --  -10.29584 -10.28913 -10.28838 -10.28649 -10.28554
 Alpha  occ. eigenvalues --  -10.28529 -10.28480 -10.28266 -10.28227 -10.28101
 Alpha  occ. eigenvalues --  -10.28032 -10.28018 -10.28014 -10.27421 -10.27360
 Alpha  occ. eigenvalues --  -10.26974 -10.26742 -10.26556 -10.26508 -10.26463
 Alpha  occ. eigenvalues --  -10.26307 -10.26280 -10.26090 -10.25809 -10.25780
 Alpha  occ. eigenvalues --  -10.25697 -10.25588 -10.25587 -10.25547 -10.25519
 Alpha  occ. eigenvalues --  -10.25511 -10.25427 -10.25409 -10.25373 -10.25348
 Alpha  occ. eigenvalues --  -10.25230 -10.25178 -10.25085 -10.25059 -10.24897
 Alpha  occ. eigenvalues --  -10.24889 -10.24880 -10.24789 -10.24398 -10.24284
 Alpha  occ. eigenvalues --  -10.24226 -10.24143 -10.23993 -10.23982 -10.23883
 Alpha  occ. eigenvalues --  -10.23866 -10.23683 -10.23624 -10.23504 -10.23073
 Alpha  occ. eigenvalues --  -10.22978 -10.22745 -10.22686 -10.22515 -10.22481
 Alpha  occ. eigenvalues --  -10.22273  -3.14503  -3.14410  -1.87357  -1.87239
 Alpha  occ. eigenvalues --   -1.86835  -1.86771  -1.86757  -1.86650  -1.11225
 Alpha  occ. eigenvalues --   -1.10603  -1.05561  -1.05005  -1.04865  -1.02889
 Alpha  occ. eigenvalues --   -1.01972  -1.01723  -1.00100  -0.99391  -0.99166
 Alpha  occ. eigenvalues --   -0.98321  -0.97403  -0.97215  -0.97018  -0.96183
 Alpha  occ. eigenvalues --   -0.87831  -0.87469  -0.83658  -0.83530  -0.83084
 Alpha  occ. eigenvalues --   -0.82598  -0.82401  -0.82275  -0.82214  -0.81803
 Alpha  occ. eigenvalues --   -0.81464  -0.81069  -0.80328  -0.79962  -0.78925
 Alpha  occ. eigenvalues --   -0.78600  -0.78149  -0.78095  -0.77038  -0.76964
 Alpha  occ. eigenvalues --   -0.76441  -0.76197  -0.75683  -0.75266  -0.74778
 Alpha  occ. eigenvalues --   -0.74388  -0.72567  -0.72264  -0.71942  -0.71624
 Alpha  occ. eigenvalues --   -0.71178  -0.71133  -0.70564  -0.70301  -0.69695
 Alpha  occ. eigenvalues --   -0.68910  -0.67654  -0.67025  -0.66650  -0.65461
 Alpha  occ. eigenvalues --   -0.64152  -0.63827  -0.63484  -0.62890  -0.62834
 Alpha  occ. eigenvalues --   -0.62356  -0.61436  -0.61202  -0.60575  -0.60136
 Alpha  occ. eigenvalues --   -0.59808  -0.59637  -0.59323  -0.59277  -0.59180
 Alpha  occ. eigenvalues --   -0.58475  -0.57482  -0.56758  -0.54704  -0.54576
 Alpha  occ. eigenvalues --   -0.54541  -0.54249  -0.54039  -0.53593  -0.53456
 Alpha  occ. eigenvalues --   -0.53340  -0.53011  -0.52905  -0.52266  -0.52209
 Alpha  occ. eigenvalues --   -0.50760  -0.50536  -0.50407  -0.50316  -0.50141
 Alpha  occ. eigenvalues --   -0.49655  -0.49424  -0.49321  -0.49101  -0.48302
 Alpha  occ. eigenvalues --   -0.48182  -0.48031  -0.47954  -0.47880  -0.47739
 Alpha  occ. eigenvalues --   -0.47546  -0.47529  -0.47459  -0.47084  -0.46591
 Alpha  occ. eigenvalues --   -0.46536  -0.46375  -0.46304  -0.46024  -0.45913
 Alpha  occ. eigenvalues --   -0.45861  -0.45420  -0.45153  -0.44947  -0.44833
 Alpha  occ. eigenvalues --   -0.44565  -0.44507  -0.44340  -0.44211  -0.44157
 Alpha  occ. eigenvalues --   -0.44022  -0.44019  -0.43784  -0.43665  -0.43467
 Alpha  occ. eigenvalues --   -0.43271  -0.43143  -0.42877  -0.42546  -0.42504
 Alpha  occ. eigenvalues --   -0.42419  -0.42343  -0.42315  -0.42145  -0.42082
 Alpha  occ. eigenvalues --   -0.41740  -0.41712  -0.41477  -0.41359  -0.41121
 Alpha  occ. eigenvalues --   -0.41078  -0.40824  -0.40775  -0.40677  -0.40587
 Alpha  occ. eigenvalues --   -0.40359  -0.40039  -0.39993  -0.39774  -0.39700
 Alpha  occ. eigenvalues --   -0.39486  -0.39299  -0.39242  -0.39169  -0.39043
 Alpha  occ. eigenvalues --   -0.38556  -0.38421  -0.38420  -0.38339  -0.38182
 Alpha  occ. eigenvalues --   -0.38085  -0.37960  -0.37909  -0.37826  -0.37751
 Alpha  occ. eigenvalues --   -0.37681  -0.37633  -0.37348  -0.37275  -0.37213
 Alpha  occ. eigenvalues --   -0.36754  -0.36414  -0.36389  -0.36163  -0.36113
 Alpha  occ. eigenvalues --   -0.35903  -0.35854  -0.35687  -0.35267  -0.35255
 Alpha  occ. eigenvalues --   -0.35169  -0.34829  -0.33924  -0.33888  -0.33732
 Alpha  occ. eigenvalues --   -0.33471  -0.33209  -0.32994  -0.32952  -0.32768
 Alpha  occ. eigenvalues --   -0.32629  -0.32568  -0.31573  -0.31507  -0.31268
 Alpha  occ. eigenvalues --   -0.30911  -0.30850  -0.29907  -0.29389  -0.29260
 Alpha  occ. eigenvalues --   -0.29095  -0.28625  -0.28254  -0.26980  -0.26927
 Alpha  occ. eigenvalues --   -0.26444  -0.26152  -0.26102  -0.25939  -0.25701
 Alpha  occ. eigenvalues --   -0.25544  -0.25189  -0.24892  -0.21135  -0.20732
 Alpha  occ. eigenvalues --   -0.18933  -0.18578
 Alpha virt. eigenvalues --   -0.11339  -0.11118  -0.05209  -0.05053  -0.04039
 Alpha virt. eigenvalues --   -0.03915  -0.02441  -0.02029  -0.00539  -0.00433
 Alpha virt. eigenvalues --   -0.00178   0.00564   0.00909   0.01081   0.01484

 Mulliken charges:
               1
     1  Mg  11.999689
     2  C    6.023038
     3  C    5.996634
     4  C    5.977657
     5  C    6.005151
     6  N    7.014256
     7  C    5.966748
     8  C    6.005218
     9  C    5.988784
    10  C    6.029553
    11  C    5.998204
    12  C    6.004179
    13  C    5.999807
    14  H    0.993578
    15  N    6.995419
    16  C    6.035904
    17  C    6.018473
    18  C    6.017377
    19  C    6.028195
    20  C    5.997678
    21  C    6.014539
    22  O    8.030351
    23  C    5.992423
    24  N    6.993579
    25  C    6.031376
    26  C    5.993048
    27  C    6.011045
    28  C    5.972735
    29  C    5.997739
    30  C    6.004278
    31  C    6.001498
    32  N    7.001091
    33  C    5.966383
    34  C    5.969516
    35  C    5.999570
    36  C    5.966478
    37  C    6.002966
    38  C    5.980595
    39  O    7.973475
    40  C    5.999646
    41  C    5.996806
    42  O    7.992134
    43  O    7.999365
    44  C    6.001224
    45  H    1.013084
    46  H    1.002050
    47  H    0.989137
    48  H    1.002870
    49  H    1.006152
    50  H    0.998861
    51  H    0.999238
    52  H    1.012846
    53  H    0.990890
    54  H    1.007541
    55  H    0.996967
    56  H    1.004337
    57  H    1.015641
    58  H    1.016698
    59  H    1.016404
    60  H    1.007365
    61  H    1.007576
    62  H    1.014674
    63  H    0.998101
    64  H    0.996426
    65  H    1.008126
    66  H    0.999782
    67  H    0.994816
    68  H    1.004459
    69  H    0.990748
    70  H    0.994556
    71  H    0.994722
    72  H    1.001193
    73  H    0.982671
    74  H    0.982279
    75  H    0.979720
    76  H    0.992630
    77  H    0.999361
    78  H    0.993311
    79  H    0.997369
    80  Mg  11.999999
    81  C    5.999957
    82  C    6.000103
    83  C    6.000096
    84  C    5.999884
    85  N    7.000058
    86  C    6.000103
    87  C    5.999974
    88  C    6.000035
    89  C    5.999851
    90  C    6.000006
    91  C    5.999965
    92  C    5.999985
    93  H    1.000077
    94  N    7.000001
    95  C    5.999808
    96  C    5.999919
    97  C    5.999963
    98  C    5.999833
    99  C    6.000037
   100  C    5.999950
   101  O    7.999894
   102  C    5.999990
   103  N    6.999958
   104  C    5.999859
   105  C    6.000085
   106  C    5.999953
   107  C    6.000152
   108  C    5.999990
   109  C    5.999996
   110  C    5.999998
   111  N    7.000022
   112  C    6.000135
   113  C    6.000121
   114  C    5.999995
   115  C    6.000128
   116  C    5.999978
   117  C    6.000095
   118  O    8.000124
   119  C    6.000020
   120  C    6.000014
   121  O    8.000031
   122  O    8.000012
   123  C    5.999976
   124  H    0.999979
   125  H    0.999929
   126  H    1.000011
   127  H    1.000026
   128  H    1.000004
   129  H    1.000010
   130  H    1.000008
   131  H    0.999975
   132  H    1.000041
   133  H    0.999971
   134  H    0.999993
   135  H    1.000020
   136  H    0.999923
   137  H    0.999920
   138  H    0.999928
   139  H    0.999946
   140  H    0.999926
   141  H    0.999966
   142  H    0.999974
   143  H    0.999993
   144  H    0.999959
   145  H    1.000024
   146  H    0.999965
   147  H    0.999985
   148  H    1.000026
   149  H    0.999992
   150  H    1.000003
   151  H    0.999998
   152  H    1.000062
   153  H    1.000078
   154  H    1.000067
   155  H    1.000054
   156  H    1.000029
   157  H    1.000026
   158  H    1.000060
 Sum of Mulliken charges = 624.00000

 Dipole moment (field-independent basis, Debye):
    X=             -8.4465    Y=              5.9700    Z=             -1.7262  Tot=             10.4863
 Quadrupole moment (field-independent basis, Debye-Ang):
   XX=            500.5086   YY=              6.2225   ZZ=             -3.9287
   XY=           -185.7345   XZ=             49.2483   YZ=              1.7195

 Normal termination of Gaussian 16 at Fri Oct 15 01:38:06 2021.
