 Gaussian 16, Revision A.03,
 Gaussian 16:  ES64L-G16RevA.03 25-Dec-2016

 --------------------------------------------------------
 #p PBE1PBE/Def2SVP td=(nstates=5) density=(transition=1)
 --------------------------------------------------------

 --------------------------------
 TDDFT excited states in gaussian
 --------------------------------
 Symbolic Z-matrix:
 Charge =  0 Multiplicity = 1

                         Standard orientation:
 ---------------------------------------------------------------------
 Center     Atomic      Atomic             Coordinates (Angstroms)
 Number     Number       Type             X           Y           Z
 ---------------------------------------------------------------------
      1         12           0      -30.224301    0.265695   -0.670311
      2          6           0      -30.688100   -1.798844    2.164917
      3          6           0      -28.507436    2.503423    1.318815
      4          6           0      -30.048522    2.357294   -3.330374
      5          6           0      -32.156552   -1.932328   -2.600209
      6          7           0      -29.805226    0.300112    1.503443
      7          6           0      -29.887008   -0.735899    2.430823
      8          6           0      -29.204409   -0.338681    3.803300
      9          6           0      -28.786461    1.131851    3.536150
     10          6           0      -29.086946    1.377872    2.040629
     11          6           0      -29.431287    2.259999    4.425316
     12          6           0      -28.105772   -1.331487    4.364580
     13          6           0      -28.401456   -1.914650    5.713231
     14          1           0      -27.159992   -2.116028    6.669632
     15          7           0      -29.407295    2.122057   -0.905715
     16          6           0      -28.676641    2.876667   -0.010476
     17          6           0      -28.292870    4.132280   -0.636460
     18          6           0      -28.715996    4.140436   -1.995759
     19          6           0      -29.417023    2.812823   -2.149772
     20          6           0      -27.405587    5.197389    0.038772
     21          6           0      -28.501220    5.184881   -3.086404
     22          8           0      -28.839939    5.034717   -4.242299
     23          6           0      -27.717590    6.544810   -2.875450
     24          7           0      -31.088883    0.254233   -2.676775
     25          6           0      -30.863263    1.217621   -3.560438
     26          6           0      -31.541240    0.917937   -4.944869
     27          6           0      -32.055514   -0.564022   -4.756324
     28          6           0      -31.733128   -0.797575   -3.249405
     29          6           0      -32.584616    2.005941   -5.330954
     30          6           0      -31.406403   -1.523634   -5.733940
     31          6           0      -32.368749   -2.546020   -6.335889
     32          7           0      -31.367971   -1.447190   -0.358285
     33          6           0      -32.017765   -2.289826   -1.239697
     34          6           0      -32.623003   -3.330023   -0.466272
     35          6           0      -32.116012   -3.231130    0.853162
     36          6           0      -31.336717   -2.041656    0.900325
     37          6           0      -33.534447   -4.379504   -0.979340
     38          6           0      -32.053803   -3.900411    2.164227
     39          8           0      -32.646639   -4.866106    2.636322
     40          6           0      -31.006372   -2.909111    3.091518
     41          6           0      -31.679129   -2.473819    4.275499
     42          8           0      -32.118848   -1.357771    4.448281
     43          8           0      -31.642822   -3.449997    5.245411
     44          6           0      -32.379410   -3.063305    6.474478
     45          1           0      -27.854995    3.177193    1.878447
     46          1           0      -30.064934    3.012059   -4.203545
     47          1           0      -32.669493   -2.604241   -3.292438
     48          1           0      -30.041954   -0.221063    4.490050
     49          1           0      -27.709777    1.253107    3.655474
     50          1           0      -28.635935    2.972165    4.647374
     51          1           0      -29.835466    1.799236    5.326336
     52          1           0      -30.243714    2.803690    3.942765
     53          1           0      -27.170038   -0.772348    4.356983
     54          1           0      -28.055817   -2.168397    3.667817
     55          1           0      -28.851434   -2.901356    5.595933
     56          1           0      -29.127855   -1.220181    6.134373
     57          1           0      -26.474003    5.185241   -0.525893
     58          1           0      -27.122716    4.844977    1.030969
     59          1           0      -27.794832    6.216242    0.030326
     60          1           0      -26.718899    6.302190   -2.510736
     61          1           0      -28.310268    7.298407   -2.356025
     62          1           0      -27.738345    7.021941   -3.854796
     63          1           0      -30.835127    0.872706   -5.773758
     64          1           0      -33.140468   -0.514833   -4.850904
     65          1           0      -33.515504    1.506518   -5.601016
     66          1           0      -32.230943    2.690645   -6.102210
     67          1           0      -32.787646    2.639035   -4.468754
     68          1           0      -30.566942   -2.057712   -5.289986
     69          1           0      -30.904194   -1.037626   -6.571851
     70          1           0      -33.334322   -2.530703   -5.830281
     71          1           0      -31.916438   -3.523873   -6.168234
     72          1           0      -32.447849   -2.456709   -7.419456
     73          1           0      -33.785851   -4.350984   -2.039523
     74          1           0      -34.346552   -4.453410   -0.255061
     75          1           0      -32.889650   -5.257975   -1.013977
     76          1           0      -30.121826   -3.486207    3.362539
     77          1           0      -33.424645   -2.868709    6.233220
     78          1           0      -31.834316   -2.219762    6.897964
     79          1           0      -32.406308   -3.856560    7.220536
     80         12           0       31.047613   -0.662900    0.355687
     81          6           0       28.334401    1.422198    1.203875
     82          6           0       28.818817   -2.714456   -1.203399
     83          6           0       33.705102   -2.246358   -1.097539
     84          6           0       33.149535    1.929295    1.605674
     85          7           0       28.803413   -0.565038   -0.086816
     86          6           0       27.861262    0.257889    0.460536
     87          6           0       26.449225   -0.034672   -0.075597
     88          6           0       26.708512   -1.563956   -0.495816
     89          6           0       28.211929   -1.627404   -0.602142
     90          6           0       26.165906   -2.634458    0.488630
     91          6           0       26.021297    0.846324   -1.334208
     92          6           0       24.541644    1.060526   -1.613228
     93          1           0       23.834521    0.427700   -2.830616
     94          7           0       31.320566   -2.326381   -0.979199
     95          6           0       30.257722   -3.088625   -1.368515
     96          6           0       30.682938   -4.259635   -1.998153
     97          6           0       32.126885   -4.191900   -1.973500
     98          6           0       32.479983   -2.877989   -1.365299
     99          6           0       29.762967   -5.346628   -2.540838
    100          6           0       33.002259   -5.295732   -2.522452
    101          8           0       32.469525   -6.323440   -3.015122
    102          6           0       34.568183   -5.297773   -2.419485
    103          7           0       33.071967   -0.184328    0.305445
    104          6           0       34.000463   -1.039118   -0.348041
    105          6           0       35.402124   -0.682836    0.062697
    106          6           0       35.289385    0.761025    0.598248
    107          6           0       33.773218    0.846449    0.939994
    108          6           0       36.121579   -1.516661    1.146906
    109          6           0       35.667612    1.864847   -0.523629
    110          6           0       37.132744    2.218831   -0.729365
    111          7           0       30.767556    1.201433    1.395108
    112          6           0       31.703279    2.123117    1.840237
    113          6           0       31.100207    3.245624    2.375636
    114          6           0       29.726295    3.005527    2.202638
    115          6           0       29.584641    1.755166    1.577495
    116          6           0       31.822289    4.408603    2.979434
    117          6           0       28.478474    3.479442    2.497209
    118          8           0       28.141061    4.429747    3.175346
    119          6           0       27.542111    2.604087    1.637908
    120          6           0       27.080391    3.505093    0.531661
    121          8           0       27.812530    4.059386   -0.227816
    122          8           0       25.693093    3.653783    0.577895
    123          6           0       25.224033    4.629220   -0.343777
    124          1           0       28.133746   -3.499383   -1.531272
    125          1           0       34.598072   -2.817396   -1.361892
    126          1           0       33.852542    2.609403    2.090688
    127          1           0       25.702880   -0.076942    0.716974
    128          1           0       26.175274   -1.717678   -1.433556
    129          1           0       25.222571   -2.922740    0.023977
    130          1           0       25.950972   -2.219816    1.473431
    131          1           0       26.820534   -3.504847    0.536109
    132          1           0       26.386049    0.393242   -2.256088
    133          1           0       26.562813    1.788534   -1.247176
    134          1           0       24.443267    2.145105   -1.678150
    135          1           0       23.999251    0.752723   -0.719410
    136          1           0       30.061830   -6.392951   -2.469317
    137          1           0       29.661902   -4.964388   -3.556336
    138          1           0       28.834666   -5.366076   -1.969852
    139          1           0       34.862048   -5.313260   -1.370308
    140          1           0       34.834133   -4.382840   -2.948526
    141          1           0       35.086817   -6.065647   -2.993342
    142          1           0       35.990214   -0.655456   -0.854063
    143          1           0       35.915251    0.927378    1.475091
    144          1           0       36.312632   -0.993062    2.083461
    145          1           0       36.861111   -2.186028    0.706937
    146          1           0       35.369361   -2.243498    1.453046
    147          1           0       35.105060    2.716106   -0.140760
    148          1           0       35.272375    1.577811   -1.498235
    149          1           0       37.378489    2.120301   -1.786376
    150          1           0       37.752229    1.533899   -0.149729
    151          1           0       37.331262    3.258142   -0.466311
    152          1           0       31.394208    5.297632    2.517228
    153          1           0       32.883071    4.422826    2.726118
    154          1           0       31.680690    4.482568    4.057802
    155          1           0       26.699749    2.302650    2.259580
    156          1           0       25.163455    5.598842    0.149699
    157          1           0       24.183981    4.484081   -0.638354
    158          1           0       25.867937    4.719836   -1.216913
 ---------------------------------------------------------------------

 SCF Done:  E(RPBE1PBE) =  -4067.35234280     A.U. after   16 cycles

 Excitation energies and oscillator strengths:

 Excited State   1:      Singlet-A      1.8153 eV  682.99 nm  f=0.0000  <S**2>=0.000
     312 -> 313        0.70711
 This state for optimization and/or second-order correction.
 Total Energy, E(TD-HF/TD-DFT) =  -4067.28563145
 Copying the excited state density for this state as the 1-particle RhoCI density.

 Excited State   2:      Singlet-A      1.8621 eV  665.84 nm  f=0.3814  <S**2>=0.000
     309 -> 315       -0.18180
     311 -> 313        0.68863
     311 <- 313       -0.10550

 Excited State   3:      Singlet-A      1.8743 eV  661.48 nm  f=0.3658  <S**2>=0.000
     310 -> 316       -0.17482
     312 -> 314        0.69055

 Excited State   4:      Singlet-A      2.1541 eV  575.57 nm  f=0.1182  <S**2>=0.000
     309 -> 313        0.65689
     311 -> 315        0.24321

 Excited State   5:      Singlet-A      2.2666 eV  546.99 nm  f=0.0000  <S**2>=0.000
     311 -> 314        0.70711

 The electronic state is 1-A.
 Alpha  occ. eigenvalues --  -46.93706 -46.91671 -19.26027 -19.25023 -19.21094
 Alpha  occ. eigenvalues --  -19.19986 -19.19765 -19.19518 -19.18370 -19.18172
 Alpha  occ. eigenvalues --  -14.42514 -14.42350 -14.41813 -14.41246 -14.39890
 Alpha  occ. eigenvalues --  -14.39455 -14.38847 -14.38668 -10.36693 -10.35346
 Alpha  occ. eigenvalues --  -10.33469 -10.33256 -10.32241 -10.30472 -10.30123
 Alpha  occ. eigenvalues --  -10.30111 -10.29964 -10.29465 -10.29328 -10.28721
 Alpha  occ. eigenvalues --  -10.28550 -10.28537 -10.28371 -10.28334 -10.28213
 Alpha  occ. eigenvalues --  -10.28199 -10.27933 -10.27853 -10.27700 -10.27375
 Alpha  occ. eigenvalues --  -10.27062 -10.26793 -10.26751 -10.26599 -10.26228
 Alpha  occ. eigenvalues --  -10.26207 -10.26167 -10.25980 -10.25851 -10.25844
 Alpha  occ. eigenvalues --  -10.25745 -10.25710 -10.25688 -10.25675 -10.25620
 Alpha  occ. eigenvalues --  -10.25510 -10.25473 -10.25469 -10.25384 -10.25353
 Alpha  occ. eigenvalues --  -10.25291 -10.25265 -10.25226 -10.25130 -10.25106
 Alpha  occ. eigenvalues --  -10.25080 -10.25026 -10.24940 -10.24395 -10.24184
 Alpha  occ. eigenvalues --  -10.24113 -10.24069 -10.24035 -10.24002 -10.23763
 Alpha  occ. eigenvalues --  -10.23681 -10.23675 -10.23642 -10.23565 -10.23296
 Alpha  occ. eigenvalues --  -10.23237 -10.23115 -10.23112 -10.22909 -10.22799
 Alpha  occ. eigenvalues --  -10.21887  -3.15586  -3.13780  -1.88424  -1.87952
 Alpha  occ. eigenvalues --   -1.87804  -1.86628  -1.86147  -1.86011  -1.12372
 Alpha  occ. eigenvalues --   -1.10675  -1.05949  -1.04837  -1.04347  -1.04304
 Alpha  occ. eigenvalues --   -1.02313  -1.02070  -1.00345  -0.99357  -0.98710
 Alpha  occ. eigenvalues --   -0.98610  -0.97011  -0.96650  -0.96536  -0.95656
 Alpha  occ. eigenvalues --   -0.88731  -0.86382  -0.83458  -0.83235  -0.83037
 Alpha  occ. eigenvalues --   -0.82998  -0.82675  -0.82220  -0.81941  -0.81434
 Alpha  occ. eigenvalues --   -0.81263  -0.81198  -0.80263  -0.80229  -0.78663
 Alpha  occ. eigenvalues --   -0.78621  -0.77991  -0.77930  -0.77182  -0.76803
 Alpha  occ. eigenvalues --   -0.76166  -0.75353  -0.75022  -0.75017  -0.74596
 Alpha  occ. eigenvalues --   -0.74176  -0.72495  -0.72406  -0.71713  -0.71312
 Alpha  occ. eigenvalues --   -0.71229  -0.70813  -0.70288  -0.70111  -0.70058
 Alpha  occ. eigenvalues --   -0.69090  -0.68081  -0.66809  -0.66705  -0.65753
 Alpha  occ. eigenvalues --   -0.63926  -0.63333  -0.63261  -0.62925  -0.62804
 Alpha  occ. eigenvalues --   -0.61995  -0.61655  -0.61535  -0.60694  -0.60065
 Alpha  occ. eigenvalues --   -0.59807  -0.59354  -0.59296  -0.59064  -0.58974
 Alpha  occ. eigenvalues --   -0.58782  -0.57366  -0.55803  -0.55035  -0.54733
 Alpha  occ. eigenvalues --   -0.54418  -0.54152  -0.53815  -0.53788  -0.53565
 Alpha  occ. eigenvalues --   -0.53310  -0.52724  -0.52620  -0.52408  -0.51797
 Alpha  occ. eigenvalues --   -0.51137  -0.50503  -0.50289  -0.50200  -0.49869
 Alpha  occ. eigenvalues --   -0.49673  -0.49387  -0.48884  -0.48457  -0.48319
 Alpha  occ. eigenvalues --   -0.48170  -0.47820  -0.47748  -0.47651  -0.47348
 Alpha  occ. eigenvalues --   -0.47235  -0.47228  -0.47172  -0.46782  -0.46695
 Alpha  occ. eigenvalues --   -0.46437  -0.46308  -0.46064  -0.46060  -0.45795
 Alpha  occ. eigenvalues --   -0.45649  -0.45487  -0.45378  -0.45227  -0.45161
 Alpha  occ. eigenvalues --   -0.44867  -0.44727  -0.44488  -0.44351  -0.44255
 Alpha  occ. eigenvalues --   -0.44119  -0.43997  -0.43994  -0.43648  -0.43557
 Alpha  occ. eigenvalues --   -0.43267  -0.43108  -0.42924  -0.42743  -0.42690
 Alpha  occ. eigenvalues --   -0.42660  -0.42404  -0.42031  -0.41952  -0.41899
 Alpha  occ. eigenvalues --   -0.41711  -0.41469  -0.41292  -0.41170  -0.41139
 Alpha  occ. eigenvalues --   -0.41096  -0.40915  -0.40852  -0.40801  -0.40554
 Alpha  occ. eigenvalues --   -0.40294  -0.40072  -0.39952  -0.39854  -0.39675
 Alpha  occ. eigenvalues --   -0.39511  -0.39419  -0.39387  -0.39198  -0.38902
 Alpha  occ. eigenvalues --   -0.38695  -0.38668  -0.38638  -0.38473  -0.38183
 Alpha  occ. eigenvalues --   -0.38171  -0.38013  -0.37955  -0.37791  -0.37545
 Alpha  occ. eigenvalues --   -0.37426  -0.37405  -0.37306  -0.37211  -0.37096
 Alpha  occ. eigenvalues --   -0.36915  -0.36412  -0.36336  -0.36214  -0.36089
 Alpha  occ. eigenvalues --   -0.36016  -0.35849  -0.35445  -0.35393  -0.35226
 Alpha  occ. eigenvalues --   -0.35204  -0.34923  -0.34612  -0.34371  -0.34369
 Alpha  occ. eigenvalues --   -0.33652  -0.33497  -0.32835  -0.32653  -0.32641
 Alpha  occ. eigenvalues --   -0.32252  -0.32092  -0.31941  -0.31921  -0.31616
 Alpha  occ. eigenvalues --   -0.31253  -0.31003  -0.30398  -0.30263  -0.29319
 Alpha  occ. eigenvalues --   -0.29024  -0.28986  -0.28719  -0.27140  -0.27094
 Alpha  occ. eigenvalues --   -0.26203  -0.25930  -0.25709  -0.25589  -0.25350
 Alpha  occ. eigenvalues --   -0.25245  -0.24680  -0.24632  -0.21319  -0.20944
 Alpha  occ. eigenvalues --   -0.19640  -0.18887
 Alpha virt. eigenvalues --   -0.12000  -0.11093  -0.05992  -0.05333  -0.04284
 Alpha virt. eigenvalues --   -0.04132  -0.02358  -0.01870  -0.01404   0.00095
 Alpha virt. eigenvalues --    0.00114   0.00223   0.00742   0.01118   0.01238

 Mulliken charges:
               1
     1  Mg  12.000000
     2  C    6.000000
     3  C    6.000000
     4  C    6.000000
     5  C    6.000000
     6  N    7.000000
     7  C    6.000000
     8  C    6.000000
     9  C    6.000000
    10  C    6.000000
    11  C    6.000000
    12  C    6.000000
    13  C    6.000000
    14  H    1.000000
    15  N    7.000000
    16  C    6.000000
    17  C    6.000000
    18  C    6.000000
    19  C    6.000000
    20  C    6.000000
    21  C    6.000000
    22  O    8.000000
    23  C    6.000000
    24  N    7.000000
    25  C    6.000000
    26  C    6.000000
    27  C    6.000000
    28  C    6.000000
    29  C    6.000000
    30  C    6.000000
    31  C    6.000000
    32  N    7.000000
    33  C    6.000000
    34  C    6.000000
    35  C    6.000000
    36  C    6.000000
    37  C    6.000000
    38  C    6.000000
    39  O    8.000000
    40  C    6.000000
    41  C    6.000000
    42  O    8.000000
    43  O    8.000000
    44  C    6.000000
    45  H    1.000000
    46  H    1.000000
    47  H    1.000000
    48  H    1.000000
    49  H    1.000000
    50  H    1.000000
    51  H    1.000000
    52  H    1.000000
    53  H    1.000000
    54  H    1.000000
    55  H    1.000000
    56  H    1.000000
    57  H    1.000000
    58  H    1.000000
    59  H    1.000000
    60  H    1.000000
    61  H    1.000000
    62  H    1.000000
    63  H    1.000000
    64  H    1.000000
    65  H    1.000000
    66  H    1.000000
    67  H    1.000000
    68  H    1.000000
    69  H    1.000000
    70  H    1.000000
    71  H    1.000000
    72  H    1.000000
    73  H    1.000000
    74  H    1.000000
    75  H    1.000000
    76  H    1.000000
    77  H    1.000000
    78  H    1.000000
    79  H    1.000000
    80  Mg  12.000000
    81  C    6.000000
    82  C    6.000000
    83  C    6.000000
    84  C    6.000000
    85  N    7.000000
    86  C    6.000000
    87  C    6.000000
    88  C    6.000000
    89  C    6.000000
    90  C    6.000000
    91  C    6.000000
    92  C    6.000000
    93  H    1.000000
    94  N    7.000000
    95  C    6.000000
    96  C    6.000000
    97  C    6.000000
    98  C    6.000000
    99  C    6.000000
   100  C    6.000000
   101  O    8.000000
   102  C    6.000000
   103  N    7.000000
   104  C    6.000000
   105  C    6.000000
   106  C    6.000000
   107  C    6.000000
   108  C    6.000000
   109  C    6.000000
   110  C    6.000000
   111  N    7.000000
   112  C    6.000000
   113  C    6.000000
   114  C    6.000000
   115  C    6.000000
   116  C    6.000000
   117  C    6.000000
   118  O    8.000000
   119  C    6.000000
   120  C    6.000000
   121  O    8.000000
   122  O    8.000000
   123  C    6.000000
   124  H    1.000000
   125  H    1.000000
   126  H    1.000000
   127  H    1.000000
   128  H    1.000000
   129  H    1.000000
   130  H    1.000000
   131  H    1.000000
   132  H    1.000000
   133  H    1.000000
   134  H    1.000000
   135  H    1.000000
   136  H    1.000000
   137  H    1.000000
   138  H    1.000000
   139  H    1.000000
   140  H    1.000000
   141  H    1.000000
   142  H    1.000000
   143  H    1.000000
   144  H    1.000000
   145  H    1.000000
   146  H    1.000000
   147  H    1.000000
   148  H    1.000000
   149  H    1.000000
   150  H    1.000000
   151  H    1.000000
   152  H    1.000000
   153  H    1.000000
   154  H    1.000000
   155  H    1.000000
   156  H    1.000000
   157  H    1.000000
   158  H    1.000000
 Sum of Mulliken charges = 624.00000

 Dipole moment (field-independent basis, Debye):
    X=             -0.0000    Y=              0.0000    Z=              0.0000  Tot=              0.0000
 Quadrupole moment (field-independent basis, Debye-Ang):
   XX=             -0.0000   YY=             -0.0000   ZZ=              0.0000
   XY=              0.0000   XZ=              0.0000   YZ=             -0.0000

 Normal termination of Gaussian 16 at Fri Oct 15 13:18:23 2021.
