 Gaussian 16, Revision A.03,
 Gaussian 16:  ES64L-G16RevA.03 25-Dec-2016

 --------------------------------------------------------
 #p PBE1PBE/Def2SVP td=(nstates=5) density=(transition=1)
 --------------------------------------------------------

 --------------------------------
 TDDFT excited states in gaussian
 --------------------------------
 Symbolic Z-matrix:
 Charge =  0 Multiplicity = 1

                         Standard orientation:
 ---------------------------------------------------------------------
 Center     Atomic      Atomic             Coordinates (Angstroms)
 Number     Number       Type             X           Y           Z
 ---------------------------------------------------------------------
      1         12           0      -24.543726    0.410600    0.206389
      2          6           0      -23.219884   -2.221827   -1.668915
      3          6           0      -22.771761    2.572752   -1.910133
      4          6           0      -25.264754    2.990496    2.212189
      5          6           0      -25.311722   -1.833368    2.700000
      6          7           0      -23.199086    0.221794   -1.702987
      7          6           0      -22.804006   -0.992033   -2.170923
      8          6           0      -21.826198   -0.820562   -3.400271
      9          6           0      -21.496802    0.753304   -3.292748
     10          6           0      -22.493753    1.230266   -2.223254
     11          6           0      -20.050067    0.887592   -2.697832
     12          6           0      -22.650228   -1.137509   -4.702025
     13          6           0      -21.945301   -0.911133   -6.067179
     14          1           0      -22.481021   -0.262890   -7.309008
     15          7           0      -24.245589    2.473467    0.030026
     16          6           0      -23.527320    3.214225   -0.923419
     17          6           0      -23.607249    4.567656   -0.564594
     18          6           0      -24.473837    4.728669    0.508228
     19          6           0      -24.706523    3.366982    0.960598
     20          6           0      -22.975283    5.611232   -1.426314
     21          6           0      -24.967872    6.019201    1.241467
     22          8           0      -25.755658    6.033393    2.181218
     23          6           0      -24.671321    7.422410    0.705370
     24          7           0      -25.080005    0.530511    2.206629
     25          6           0      -25.459606    1.709848    2.747282
     26          6           0      -26.168842    1.566197    4.108061
     27          6           0      -26.057877    0.032091    4.329358
     28          6           0      -25.571541   -0.495326    2.991409
     29          6           0      -25.640175    2.529718    5.221953
     30          6           0      -27.316727   -0.701251    4.868149
     31          6           0      -28.409024   -0.920550    3.909411
     32          7           0      -24.422694   -1.620195    0.475095
     33          6           0      -24.757948   -2.379040    1.492618
     34          6           0      -24.599690   -3.805081    1.189312
     35          6           0      -23.981120   -3.745435   -0.100300
     36          6           0      -23.860054   -2.420694   -0.471844
     37          6           0      -25.271434   -4.952170    1.785987
     38          6           0      -23.471767   -4.588587   -1.167668
     39          8           0      -23.493748   -5.791000   -1.302503
     40          6           0      -22.896164   -3.594865   -2.183945
     41          6           0      -21.413949   -3.863552   -2.464591
     42          8           0      -20.514558   -3.535915   -1.735006
     43          8           0      -21.295677   -4.592095   -3.624022
     44          6           0      -19.885274   -4.885054   -3.968292
     45          1           0      -22.324271    3.238374   -2.650027
     46          1           0      -25.706329    3.800517    2.796870
     47          1           0      -25.763316   -2.322526    3.564812
     48          1           0      -20.903599   -1.389684   -3.283390
     49          1           0      -21.570068    1.298459   -4.234604
     50          1           0      -19.978468    1.203662   -1.657617
     51          1           0      -19.525808    1.748092   -3.114242
     52          1           0      -19.444972   -0.013205   -2.798407
     53          1           0      -23.567658   -0.551642   -4.652515
     54          1           0      -22.991904   -2.169345   -4.615969
     55          1           0      -21.541123   -1.893246   -6.314274
     56          1           0      -21.149649   -0.231450   -5.764619
     57          1           0      -22.412356    5.239656   -2.282971
     58          1           0      -22.440155    6.302456   -0.773761
     59          1           0      -23.828217    6.145121   -1.846223
     60          1           0      -23.618010    7.698533    0.755488
     61          1           0      -25.299317    8.210468    1.121235
     62          1           0      -24.993163    7.423331   -0.336200
     63          1           0      -27.159221    1.880006    3.779435
     64          1           0      -25.226357   -0.072798    5.026266
     65          1           0      -25.258486    3.454015    4.789525
     66          1           0      -24.825653    2.043367    5.759361
     67          1           0      -26.418512    2.832377    5.922752
     68          1           0      -27.637170   -0.021165    5.656764
     69          1           0      -27.018402   -1.621335    5.371063
     70          1           0      -28.204972   -1.818605    3.326563
     71          1           0      -28.566069   -0.041081    3.285239
     72          1           0      -29.350474   -1.147969    4.410347
     73          1           0      -26.193769   -4.546123    2.202023
     74          1           0      -24.827460   -5.454515    2.645572
     75          1           0      -25.424588   -5.672004    0.982642
     76          1           0      -23.472957   -3.692645   -3.104236
     77          1           0      -19.843711   -5.869380   -4.434254
     78          1           0      -19.210374   -5.051026   -3.128344
     79          1           0      -19.504831   -4.170358   -4.697345
     80         12           0       24.041918    0.571454   -0.299869
     81          6           0       23.389335   -2.598603    0.924225
     82          6           0       20.683479    1.346278   -0.009537
     83          6           0       24.852003    3.816001   -0.759771
     84          6           0       27.454134   -0.313326   -0.192220
     85          7           0       22.280114   -0.428481    0.656405
     86          6           0       22.265390   -1.745205    0.881883
     87          6           0       20.861345   -2.182526    1.402551
     88          6           0       19.945275   -0.996146    0.838848
     89          6           0       21.030301    0.052572    0.382167
     90          6           0       18.930280   -1.472851   -0.227945
     91          6           0       20.837911   -2.189884    2.914110
     92          6           0       20.090240   -3.350206    3.552272
     93          1           0       19.223475   -3.191805    4.857936
     94          7           0       22.839938    2.319329   -0.542626
     95          6           0       21.522737    2.472087   -0.322607
     96          6           0       21.192699    3.829018   -0.615823
     97          6           0       22.364848    4.540952   -1.013442
     98          6           0       23.442823    3.562704   -0.822531
     99          6           0       19.783690    4.289991   -0.683005
    100          6           0       22.397724    5.999263   -1.304415
    101          8           0       21.363838    6.646521   -1.311976
    102          6           0       23.694862    6.712231   -1.667311
    103          7           0       25.981645    1.612692   -0.544369
    104          6           0       25.977781    2.971254   -0.647102
    105          6           0       27.361567    3.515283   -0.499543
    106          6           0       28.193347    2.159944   -0.308330
    107          6           0       27.198801    1.030359   -0.411756
    108          6           0       27.824303    4.425604   -1.652492
    109          6           0       29.088682    2.070517    1.005945
    110          6           0       30.586593    1.696110    0.912678
    111          7           0       25.196573   -1.067803    0.210372
    112          6           0       26.534037   -1.299270    0.133793
    113          6           0       26.789281   -2.668463    0.221499
    114          6           0       25.577775   -3.278508    0.515641
    115          6           0       24.658890   -2.260703    0.571325
    116          6           0       28.206117   -3.309092    0.144322
    117          6           0       24.928103   -4.479106    0.764544
    118          8           0       25.425165   -5.588926    0.920688
    119          6           0       23.395465   -4.154522    1.110612
    120          6           0       22.506769   -4.705528    0.152217
    121          8           0       22.228475   -4.343429   -0.993441
    122          8           0       21.926589   -5.813972    0.761318
    123          6           0       20.953607   -6.627957    0.053090
    124          1           0       19.612348    1.548835   -0.069894
    125          1           0       25.264457    4.815795   -0.913634
    126          1           0       28.526712   -0.499285   -0.279777
    127          1           0       20.655411   -3.177662    1.009324
    128          1           0       19.420833   -0.434701    1.611369
    129          1           0       19.083056   -2.518840   -0.493050
    130          1           0       19.017655   -0.848353   -1.117600
    131          1           0       17.931241   -1.300341    0.171721
    132          1           0       20.490408   -1.288093    3.418618
    133          1           0       21.889338   -2.156024    3.199460
    134          1           0       20.818269   -4.151065    3.680376
    135          1           0       19.435263   -3.650488    2.734404
    136          1           0       19.572158    4.253287   -1.751489
    137          1           0       19.670432    5.293393   -0.272123
    138          1           0       19.094252    3.645225   -0.137872
    139          1           0       24.205620    6.891258   -0.721052
    140          1           0       23.397722    7.703424   -2.008995
    141          1           0       24.276288    6.121541   -2.375099
    142          1           0       27.245827    4.070048    0.430993
    143          1           0       28.965316    2.052917   -1.070395
    144          1           0       27.807534    5.440653   -1.254260
    145          1           0       27.204451    4.330322   -2.544610
    146          1           0       28.861605    4.198138   -1.896978
    147          1           0       28.645301    1.327906    1.669146
    148          1           0       29.145270    3.016459    1.544996
    149          1           0       30.505580    0.613081    1.004436
    150          1           0       31.127870    2.081139    1.775925
    151          1           0       31.117627    1.790817   -0.034401
    152          1           0       28.729319   -3.099628    1.076446
    153          1           0       28.874133   -2.906874   -0.617552
    154          1           0       28.138187   -4.390496    0.022590
    155          1           0       23.241300   -4.513236    2.128402
    156          1           0       21.060831   -7.646163    0.425798
    157          1           0       20.982505   -6.546515   -1.033805
    158          1           0       19.964104   -6.327802    0.398187
 ---------------------------------------------------------------------

 SCF Done:  E(RPBE1PBE) =  -4067.37011452     A.U. after   15 cycles

 Excitation energies and oscillator strengths:

 Excited State   1:      Singlet-A      1.8308 eV  677.20 nm  f=0.0000  <S**2>=0.000
     312 -> 313        0.70711
 This state for optimization and/or second-order correction.
 Total Energy, E(TD-HF/TD-DFT) =  -4067.30283282
 Copying the excited state density for this state as the 1-particle RhoCI density.

 Excited State   2:      Singlet-A      1.8605 eV  666.39 nm  f=0.3796  <S**2>=0.000
     309 -> 315       -0.17798
     311 -> 313        0.69228
     311 <- 313       -0.11024

 Excited State   3:      Singlet-A      1.8847 eV  657.85 nm  f=0.3867  <S**2>=0.000
     310 -> 316       -0.17971
     312 -> 314        0.69123
     312 <- 314       -0.10353

 Excited State   4:      Singlet-A      2.1904 eV  566.05 nm  f=0.0000  <S**2>=0.000
     311 -> 314        0.70711

 Excited State   5:      Singlet-A      2.2365 eV  554.38 nm  f=0.0968  <S**2>=0.000
     309 -> 313        0.64814
     311 -> 315        0.26587

 The electronic state is 1-A.
 Alpha  occ. eigenvalues --  -46.93072 -46.92124 -19.26457 -19.25270 -19.20635
 Alpha  occ. eigenvalues --  -19.20347 -19.19522 -19.19520 -19.19114 -19.18612
 Alpha  occ. eigenvalues --  -14.41886 -14.41563 -14.41511 -14.40748 -14.39475
 Alpha  occ. eigenvalues --  -14.38886 -14.38841 -14.38776 -10.36803 -10.36524
 Alpha  occ. eigenvalues --  -10.33201 -10.32366 -10.31794 -10.31707 -10.29280
 Alpha  occ. eigenvalues --  -10.29156 -10.29061 -10.29051 -10.28878 -10.28780
 Alpha  occ. eigenvalues --  -10.28680 -10.28633 -10.28493 -10.28228 -10.27837
 Alpha  occ. eigenvalues --  -10.27812 -10.27498 -10.27491 -10.27148 -10.27125
 Alpha  occ. eigenvalues --  -10.26452 -10.26417 -10.26337 -10.26316 -10.26212
 Alpha  occ. eigenvalues --  -10.26199 -10.26155 -10.26128 -10.26010 -10.25993
 Alpha  occ. eigenvalues --  -10.25964 -10.25732 -10.25669 -10.25619 -10.25600
 Alpha  occ. eigenvalues --  -10.25483 -10.25480 -10.25466 -10.25393 -10.25261
 Alpha  occ. eigenvalues --  -10.25088 -10.25081 -10.24968 -10.24664 -10.24631
 Alpha  occ. eigenvalues --  -10.24559 -10.24469 -10.24378 -10.24366 -10.24273
 Alpha  occ. eigenvalues --  -10.23960 -10.23852 -10.23850 -10.23644 -10.23524
 Alpha  occ. eigenvalues --  -10.23499 -10.23363 -10.23361 -10.23317 -10.23281
 Alpha  occ. eigenvalues --  -10.23081 -10.22885 -10.22588 -10.22542 -10.22402
 Alpha  occ. eigenvalues --  -10.22153  -3.14981  -3.14264  -1.87834  -1.87349
 Alpha  occ. eigenvalues --   -1.87195  -1.87091  -1.86653  -1.86474  -1.11600
 Alpha  occ. eigenvalues --   -1.10438  -1.05115  -1.05011  -1.04799  -1.04762
 Alpha  occ. eigenvalues --   -1.03612  -1.02272  -1.00203  -0.99777  -0.98717
 Alpha  occ. eigenvalues --   -0.98491  -0.98354  -0.97983  -0.97318  -0.97020
 Alpha  occ. eigenvalues --   -0.88285  -0.88256  -0.83819  -0.83738  -0.83395
 Alpha  occ. eigenvalues --   -0.82797  -0.82699  -0.82440  -0.82253  -0.81729
 Alpha  occ. eigenvalues --   -0.81551  -0.81249  -0.80635  -0.80565  -0.79725
 Alpha  occ. eigenvalues --   -0.78911  -0.78305  -0.77996  -0.77337  -0.76679
 Alpha  occ. eigenvalues --   -0.76483  -0.75837  -0.75720  -0.75162  -0.75098
 Alpha  occ. eigenvalues --   -0.74694  -0.72739  -0.72532  -0.71940  -0.71929
 Alpha  occ. eigenvalues --   -0.70947  -0.70879  -0.70795  -0.70462  -0.69546
 Alpha  occ. eigenvalues --   -0.69173  -0.67944  -0.66990  -0.66882  -0.66208
 Alpha  occ. eigenvalues --   -0.64393  -0.64336  -0.63672  -0.63624  -0.62794
 Alpha  occ. eigenvalues --   -0.62556  -0.61780  -0.61356  -0.60565  -0.60338
 Alpha  occ. eigenvalues --   -0.60070  -0.59844  -0.59433  -0.59215  -0.58956
 Alpha  occ. eigenvalues --   -0.58594  -0.57245  -0.57108  -0.55063  -0.54541
 Alpha  occ. eigenvalues --   -0.54520  -0.54041  -0.53922  -0.53715  -0.53517
 Alpha  occ. eigenvalues --   -0.53053  -0.52895  -0.52835  -0.52629  -0.51937
 Alpha  occ. eigenvalues --   -0.51064  -0.50951  -0.50665  -0.50193  -0.50136
 Alpha  occ. eigenvalues --   -0.50104  -0.49789  -0.49377  -0.49218  -0.48927
 Alpha  occ. eigenvalues --   -0.48555  -0.48238  -0.47999  -0.47814  -0.47574
 Alpha  occ. eigenvalues --   -0.47301  -0.47175  -0.46915  -0.46832  -0.46737
 Alpha  occ. eigenvalues --   -0.46730  -0.46526  -0.46362  -0.46111  -0.45859
 Alpha  occ. eigenvalues --   -0.45715  -0.45615  -0.45374  -0.45016  -0.44733
 Alpha  occ. eigenvalues --   -0.44721  -0.44546  -0.44538  -0.44256  -0.44172
 Alpha  occ. eigenvalues --   -0.44087  -0.44048  -0.43818  -0.43721  -0.43681
 Alpha  occ. eigenvalues --   -0.43534  -0.43448  -0.43045  -0.42957  -0.42951
 Alpha  occ. eigenvalues --   -0.42543  -0.42215  -0.42168  -0.41783  -0.41607
 Alpha  occ. eigenvalues --   -0.41525  -0.41428  -0.41341  -0.41337  -0.40844
 Alpha  occ. eigenvalues --   -0.40838  -0.40734  -0.40690  -0.40568  -0.40537
 Alpha  occ. eigenvalues --   -0.40240  -0.40112  -0.40099  -0.39845  -0.39800
 Alpha  occ. eigenvalues --   -0.39743  -0.39499  -0.39457  -0.39309  -0.39194
 Alpha  occ. eigenvalues --   -0.39058  -0.38848  -0.38711  -0.38649  -0.38460
 Alpha  occ. eigenvalues --   -0.38443  -0.38274  -0.38179  -0.37978  -0.37974
 Alpha  occ. eigenvalues --   -0.37798  -0.37729  -0.37386  -0.37262  -0.37159
 Alpha  occ. eigenvalues --   -0.37044  -0.36888  -0.36806  -0.36787  -0.36687
 Alpha  occ. eigenvalues --   -0.36641  -0.36388  -0.35887  -0.35598  -0.35215
 Alpha  occ. eigenvalues --   -0.35140  -0.34657  -0.34558  -0.33857  -0.33403
 Alpha  occ. eigenvalues --   -0.33271  -0.33181  -0.32974  -0.32818  -0.32691
 Alpha  occ. eigenvalues --   -0.32430  -0.32259  -0.32252  -0.31807  -0.31413
 Alpha  occ. eigenvalues --   -0.31156  -0.30698  -0.29818  -0.29810  -0.29562
 Alpha  occ. eigenvalues --   -0.29503  -0.29050  -0.28732  -0.27448  -0.26947
 Alpha  occ. eigenvalues --   -0.26424  -0.25929  -0.25889  -0.25747  -0.25537
 Alpha  occ. eigenvalues --   -0.25508  -0.25098  -0.24988  -0.21514  -0.20721
 Alpha  occ. eigenvalues --   -0.19220  -0.18659
 Alpha virt. eigenvalues --   -0.11656  -0.10896  -0.05772  -0.04849  -0.04411
 Alpha virt. eigenvalues --   -0.03785  -0.02109  -0.02108  -0.00574  -0.00431
 Alpha virt. eigenvalues --   -0.00220   0.00476   0.00549   0.01341   0.01369

 Mulliken charges:
               1
     1  Mg  12.000000
     2  C    6.000000
     3  C    6.000000
     4  C    6.000000
     5  C    6.000000
     6  N    7.000000
     7  C    6.000000
     8  C    6.000000
     9  C    6.000000
    10  C    6.000000
    11  C    6.000000
    12  C    6.000000
    13  C    6.000000
    14  H    1.000000
    15  N    7.000000
    16  C    6.000000
    17  C    6.000000
    18  C    6.000000
    19  C    6.000000
    20  C    6.000000
    21  C    6.000000
    22  O    8.000000
    23  C    6.000000
    24  N    7.000000
    25  C    6.000000
    26  C    6.000000
    27  C    6.000000
    28  C    6.000000
    29  C    6.000000
    30  C    6.000000
    31  C    6.000000
    32  N    7.000000
    33  C    6.000000
    34  C    6.000000
    35  C    6.000000
    36  C    6.000000
    37  C    6.000000
    38  C    6.000000
    39  O    8.000000
    40  C    6.000000
    41  C    6.000000
    42  O    8.000000
    43  O    8.000000
    44  C    6.000000
    45  H    1.000000
    46  H    1.000000
    47  H    1.000000
    48  H    1.000000
    49  H    1.000000
    50  H    1.000000
    51  H    1.000000
    52  H    1.000000
    53  H    1.000000
    54  H    1.000000
    55  H    1.000000
    56  H    1.000000
    57  H    1.000000
    58  H    1.000000
    59  H    1.000000
    60  H    1.000000
    61  H    1.000000
    62  H    1.000000
    63  H    1.000000
    64  H    1.000000
    65  H    1.000000
    66  H    1.000000
    67  H    1.000000
    68  H    1.000000
    69  H    1.000000
    70  H    1.000000
    71  H    1.000000
    72  H    1.000000
    73  H    1.000000
    74  H    1.000000
    75  H    1.000000
    76  H    1.000000
    77  H    1.000000
    78  H    1.000000
    79  H    1.000000
    80  Mg  12.000000
    81  C    6.000000
    82  C    6.000000
    83  C    6.000000
    84  C    6.000000
    85  N    7.000000
    86  C    6.000000
    87  C    6.000000
    88  C    6.000000
    89  C    6.000000
    90  C    6.000000
    91  C    6.000000
    92  C    6.000000
    93  H    1.000000
    94  N    7.000000
    95  C    6.000000
    96  C    6.000000
    97  C    6.000000
    98  C    6.000000
    99  C    6.000000
   100  C    6.000000
   101  O    8.000000
   102  C    6.000000
   103  N    7.000000
   104  C    6.000000
   105  C    6.000000
   106  C    6.000000
   107  C    6.000000
   108  C    6.000000
   109  C    6.000000
   110  C    6.000000
   111  N    7.000000
   112  C    6.000000
   113  C    6.000000
   114  C    6.000000
   115  C    6.000000
   116  C    6.000000
   117  C    6.000000
   118  O    8.000000
   119  C    6.000000
   120  C    6.000000
   121  O    8.000000
   122  O    8.000000
   123  C    6.000000
   124  H    1.000000
   125  H    1.000000
   126  H    1.000000
   127  H    1.000000
   128  H    1.000000
   129  H    1.000000
   130  H    1.000000
   131  H    1.000000
   132  H    1.000000
   133  H    1.000000
   134  H    1.000000
   135  H    1.000000
   136  H    1.000000
   137  H    1.000000
   138  H    1.000000
   139  H    1.000000
   140  H    1.000000
   141  H    1.000000
   142  H    1.000000
   143  H    1.000000
   144  H    1.000000
   145  H    1.000000
   146  H    1.000000
   147  H    1.000000
   148  H    1.000000
   149  H    1.000000
   150  H    1.000000
   151  H    1.000000
   152  H    1.000000
   153  H    1.000000
   154  H    1.000000
   155  H    1.000000
   156  H    1.000000
   157  H    1.000000
   158  H    1.000000
 Sum of Mulliken charges = 624.00000

 Dipole moment (field-independent basis, Debye):
    X=              0.0000    Y=             -0.0000    Z=              0.0000  Tot=              0.0000
 Quadrupole moment (field-independent basis, Debye-Ang):
   XX=              0.0000   YY=             -0.0000   ZZ=              0.0000
   XY=              0.0000   XZ=             -0.0000   YZ=             -0.0000

 Normal termination of Gaussian 16 at Thu Oct 14 01:22:08 2021.
