 Gaussian 16, Revision A.03,
 Gaussian 16:  ES64L-G16RevA.03 25-Dec-2016

 --------------------------------------------------------
 #p PBE1PBE/Def2SVP td=(nstates=5) density=(transition=1)
 --------------------------------------------------------

 --------------------------------
 TDDFT excited states in gaussian
 --------------------------------
 Symbolic Z-matrix:
 Charge =  0 Multiplicity = 1

                         Standard orientation:
 ---------------------------------------------------------------------
 Center     Atomic      Atomic             Coordinates (Angstroms)
 Number     Number       Type             X           Y           Z
 ---------------------------------------------------------------------
      1         12           0       27.739964    0.397508    0.032000
      2          6           0       24.333920    0.871790   -0.691963
      3          6           0       27.139518    1.506916    3.230566
      4          6           0       30.727755   -0.780602    0.826172
      5          6           0       28.166959   -0.972477   -3.217410
      6          7           0       25.913353    0.855218    1.186858
      7          6           0       24.592590    0.999034    0.688856
      8          6           0       23.709825    1.732701    1.612156
      9          6           0       24.674026    2.017861    2.843335
     10          6           0       26.015010    1.459913    2.393293
     11          6           0       24.643238    3.499103    3.291658
     12          6           0       22.547531    0.941125    2.129268
     13          6           0       22.799031   -0.545594    2.421803
     14          1           0       22.093866   -1.276945    3.629718
     15          7           0       28.847973    0.383060    1.789704
     16          6           0       28.459546    0.994491    2.925018
     17          6           0       29.553662    0.951188    3.862566
     18          6           0       30.641921    0.359282    3.175261
     19          6           0       30.127053   -0.026001    1.851434
     20          6           0       29.510124    1.417781    5.292833
     21          6           0       32.051183    0.167203    3.734806
     22          8           0       32.330915    0.519603    4.863978
     23          6           0       33.201940   -0.541141    3.083545
     24          7           0       29.128939   -0.931289   -0.942728
     25          6           0       30.353370   -1.235314   -0.410098
     26          6           0       31.307180   -1.854628   -1.483964
     27          6           0       30.322879   -2.165864   -2.651834
     28          6           0       29.144194   -1.297984   -2.268833
     29          6           0       32.455129   -0.934386   -1.964673
     30          6           0       29.730398   -3.652973   -2.695197
     31          6           0       29.735771   -4.339105   -4.013090
     32          7           0       26.618028    0.106134   -1.625408
     33          6           0       26.976705   -0.263607   -2.862284
     34          6           0       25.921030    0.161084   -3.857304
     35          6           0       24.890538    0.661774   -2.999494
     36          6           0       25.304469    0.470600   -1.650870
     37          6           0       25.892653    0.055955   -5.375332
     38          6           0       23.527998    1.110173   -3.011053
     39          8           0       22.750359    1.266737   -3.939121
     40          6           0       23.127207    1.293530   -1.491701
     41          6           0       22.067096    0.255415   -1.187396
     42          8           0       22.199201   -0.922630   -1.134967
     43          8           0       20.904936    0.920808   -0.859739
     44          6           0       19.878928    0.057499   -0.266164
     45          1           0       26.986991    2.040405    4.170886
     46          1           0       31.776285   -1.019025    1.012237
     47          1           0       28.417721   -1.282705   -4.233926
     48          1           0       23.341198    2.613075    1.085710
     49          1           0       24.519918    1.396874    3.725731
     50          1           0       24.517970    3.375296    4.367482
     51          1           0       23.791678    3.963440    2.794198
     52          1           0       25.586768    4.017135    3.118763
     53          1           0       21.622825    1.098784    1.573509
     54          1           0       22.159296    1.276415    3.091266
     55          1           0       23.881780   -0.629333    2.521265
     56          1           0       22.541746   -1.008871    1.469129
     57          1           0       29.958907    0.680319    5.959124
     58          1           0       28.486990    1.674786    5.566872
     59          1           0       30.121505    2.320492    5.293161
     60          1           0       33.070953   -1.612948    2.938156
     61          1           0       33.953926   -0.480538    3.870419
     62          1           0       33.644548    0.023325    2.262132
     63          1           0       31.757177   -2.747670   -1.050472
     64          1           0       30.708189   -1.880681   -3.631107
     65          1           0       32.270881   -0.666305   -3.004847
     66          1           0       33.432587   -1.324752   -1.681790
     67          1           0       32.402589    0.001002   -1.408697
     68          1           0       28.724394   -3.685780   -2.277525
     69          1           0       30.370700   -4.205195   -2.007115
     70          1           0       30.259937   -5.294390   -3.994294
     71          1           0       30.144988   -3.730190   -4.819562
     72          1           0       28.728546   -4.599685   -4.337072
     73          1           0       25.015678   -0.541310   -5.624969
     74          1           0       26.877648   -0.278660   -5.703112
     75          1           0       25.664510    1.060802   -5.730535
     76          1           0       22.778662    2.302953   -1.274489
     77          1           0       20.297110   -0.782805    0.287843
     78          1           0       19.318261   -0.298123   -1.130678
     79          1           0       19.198395    0.727332    0.258779
     80         12           0      -26.678848   -0.784320    0.316778
     81          6           0      -27.703986    2.565708   -0.423352
     82          6           0      -24.170127   -0.479795   -2.008623
     83          6           0      -25.931834   -4.065569    0.605213
     84          6           0      -29.808844   -1.224250    1.882327
     85          7           0      -26.033814    0.865002   -1.028748
     86          6           0      -26.528296    2.174401   -1.136152
     87          6           0      -25.659578    2.952720   -2.090739
     88          6           0      -24.932376    1.800237   -2.903779
     89          6           0      -25.100024    0.594336   -1.933245
     90          6           0      -25.704274    1.603386   -4.257028
     91          6           0      -24.747011    4.026638   -1.399900
     92          6           0      -24.770549    5.264930   -2.145130
     93          1           0      -24.171906    6.540281   -1.364213
     94          7           0      -25.106837   -1.977121   -0.496630
     95          6           0      -24.169722   -1.654526   -1.396099
     96          6           0      -23.267293   -2.753440   -1.553649
     97          6           0      -23.753140   -3.820046   -0.826891
     98          6           0      -25.008333   -3.303119   -0.109106
     99          6           0      -22.094120   -2.724702   -2.584154
    100          6           0      -23.141767   -5.222934   -0.633155
    101          8           0      -23.742351   -6.037747    0.020556
    102          6           0      -21.769404   -5.549554   -1.173189
    103          7           0      -27.878610   -2.458630    0.901864
    104          6           0      -27.248292   -3.689707    1.045920
    105          6           0      -28.081575   -4.619395    1.866739
    106          6           0      -29.326879   -3.703402    2.302806
    107          6           0      -28.972246   -2.354851    1.721911
    108          6           0      -28.421460   -5.885432    1.155475
    109          6           0      -29.680589   -3.623645    3.888230
    110          6           0      -31.008967   -4.096587    4.329909
    111          7           0      -28.414482    0.392112    0.732719
    112          6           0      -29.581244    0.038166    1.371954
    113          6           0      -30.455331    1.286820    1.470307
    114          6           0      -29.711642    2.329041    0.881294
    115          6           0      -28.499241    1.720874    0.400894
    116          6           0      -31.864592    1.316495    2.077462
    117          6           0      -29.821224    3.697296    0.474676
    118          8           0      -30.735136    4.530255    0.668972
    119          6           0      -28.612003    3.875773   -0.532404
    120          6           0      -27.962417    5.241866   -0.158059
    121          8           0      -26.920705    5.286054    0.521741
    122          8           0      -28.644413    6.253148   -0.749630
    123          6           0      -28.129585    7.559697   -0.212991
    124          1           0      -23.245919   -0.325961   -2.570194
    125          1           0      -25.701521   -5.126426    0.729031
    126          1           0      -30.752365   -1.234801    2.431736
    127          1           0      -26.345029    3.424169   -2.794643
    128          1           0      -23.895931    2.053401   -3.124076
    129          1           0      -26.662183    1.096514   -4.143113
    130          1           0      -25.055181    1.078985   -4.957012
    131          1           0      -25.890838    2.582587   -4.698617
    132          1           0      -23.721031    3.681115   -1.528920
    133          1           0      -24.973332    4.134080   -0.338816
    134          1           0      -25.792868    5.607086   -2.306938
    135          1           0      -24.214313    5.100371   -3.068293
    136          1           0      -21.225657   -2.956202   -1.967549
    137          1           0      -21.919905   -1.757403   -3.055169
    138          1           0      -22.287433   -3.438488   -3.384818
    139          1           0      -21.537656   -6.603227   -1.017335
    140          1           0      -21.218524   -4.870421   -0.522562
    141          1           0      -21.748223   -5.278836   -2.228784
    142          1           0      -27.439188   -4.814585    2.725628
    143          1           0      -30.203482   -4.116378    1.804310
    144          1           0      -27.843285   -6.649145    1.674082
    145          1           0      -28.048313   -5.912650    0.131810
    146          1           0      -29.481920   -6.136289    1.121995
    147          1           0      -29.675872   -2.547999    4.064264
    148          1           0      -28.848420   -4.066356    4.433963
    149          1           0      -31.594043   -3.283740    4.759318
    150          1           0      -30.650515   -4.715455    5.151766
    151          1           0      -31.508293   -4.728678    3.594315
    152          1           0      -32.546834    1.172819    1.240353
    153          1           0      -32.087394    2.262593    2.570685
    154          1           0      -31.935959    0.544094    2.843270
    155          1           0      -29.104788    3.902552   -1.503321
    156          1           0      -28.442359    7.793022    0.804637
    157          1           0      -28.363348    8.428912   -0.826885
    158          1           0      -27.043452    7.491420   -0.277466
 ---------------------------------------------------------------------

 SCF Done:  E(RPBE1PBE) =  -4067.33620687     A.U. after   16 cycles

 Excitation energies and oscillator strengths:

 Excited State   1:      Singlet-A      1.7509 eV  708.10 nm  f=0.0000  <S**2>=0.000
     312 -> 313        0.70711
 This state for optimization and/or second-order correction.
 Total Energy, E(TD-HF/TD-DFT) =  -4067.27186067
 Copying the excited state density for this state as the 1-particle RhoCI density.

 Excited State   2:      Singlet-A      1.8293 eV  677.75 nm  f=0.3725  <S**2>=0.000
     309 -> 316        0.16533
     311 -> 313        0.69020
     311 <- 313       -0.11395

 Excited State   3:      Singlet-A      1.8312 eV  677.05 nm  f=0.3370  <S**2>=0.000
     310 -> 315       -0.18074
     312 -> 314        0.68408

 Excited State   4:      Singlet-A      2.2335 eV  555.11 nm  f=0.0000  <S**2>=0.000
     311 -> 314        0.70711

 Excited State   5:      Singlet-A      2.2731 eV  545.45 nm  f=0.0125  <S**2>=0.000
     310 -> 314        0.57936
     312 -> 315        0.39827

 The electronic state is 1-A.
 Alpha  occ. eigenvalues --  -46.92803 -46.91974 -19.26840 -19.25272 -19.20604
 Alpha  occ. eigenvalues --  -19.20068 -19.19462 -19.19371 -19.19169 -19.18435
 Alpha  occ. eigenvalues --  -14.41895 -14.41716 -14.41491 -14.41422 -14.39261
 Alpha  occ. eigenvalues --  -14.39131 -14.38918 -14.38915 -10.36785 -10.36252
 Alpha  occ. eigenvalues --  -10.32595 -10.32209 -10.32149 -10.31737 -10.29009
 Alpha  occ. eigenvalues --  -10.28899 -10.28879 -10.28842 -10.28792 -10.28678
 Alpha  occ. eigenvalues --  -10.28627 -10.28602 -10.28501 -10.28451 -10.28449
 Alpha  occ. eigenvalues --  -10.28364 -10.28078 -10.27597 -10.27220 -10.27085
 Alpha  occ. eigenvalues --  -10.26703 -10.26655 -10.26501 -10.26475 -10.26340
 Alpha  occ. eigenvalues --  -10.26300 -10.26199 -10.26158 -10.26130 -10.26081
 Alpha  occ. eigenvalues --  -10.25946 -10.25945 -10.25878 -10.25809 -10.25653
 Alpha  occ. eigenvalues --  -10.25544 -10.25363 -10.25292 -10.25258 -10.25255
 Alpha  occ. eigenvalues --  -10.25222 -10.25073 -10.24785 -10.24731 -10.24456
 Alpha  occ. eigenvalues --  -10.24158 -10.24134 -10.24093 -10.24076 -10.24066
 Alpha  occ. eigenvalues --  -10.24052 -10.24033 -10.23979 -10.23775 -10.23671
 Alpha  occ. eigenvalues --  -10.23609 -10.23591 -10.23579 -10.22924 -10.22909
 Alpha  occ. eigenvalues --  -10.22908 -10.22808 -10.22790 -10.22790 -10.22712
 Alpha  occ. eigenvalues --  -10.22504  -3.14725  -3.14196  -1.87559  -1.87085
 Alpha  occ. eigenvalues --   -1.86998  -1.86947  -1.86575  -1.86437  -1.12007
 Alpha  occ. eigenvalues --   -1.10853  -1.06263  -1.05128  -1.04715  -1.03793
 Alpha  occ. eigenvalues --   -1.02728  -1.01973  -0.99223  -0.98693  -0.98563
 Alpha  occ. eigenvalues --   -0.97922  -0.97575  -0.97361  -0.97271  -0.96247
 Alpha  occ. eigenvalues --   -0.87548  -0.85676  -0.84155  -0.83749  -0.83188
 Alpha  occ. eigenvalues --   -0.82921  -0.82709  -0.82490  -0.81853  -0.81585
 Alpha  occ. eigenvalues --   -0.81504  -0.80646  -0.80119  -0.79936  -0.79018
 Alpha  occ. eigenvalues --   -0.78677  -0.78471  -0.78142  -0.77007  -0.76858
 Alpha  occ. eigenvalues --   -0.76534  -0.75902  -0.75166  -0.75045  -0.74816
 Alpha  occ. eigenvalues --   -0.74788  -0.72367  -0.72302  -0.71859  -0.71807
 Alpha  occ. eigenvalues --   -0.71142  -0.70913  -0.70366  -0.69814  -0.69516
 Alpha  occ. eigenvalues --   -0.69230  -0.67179  -0.66592  -0.66101  -0.65958
 Alpha  occ. eigenvalues --   -0.63948  -0.63299  -0.63130  -0.63040  -0.62333
 Alpha  occ. eigenvalues --   -0.61862  -0.61534  -0.60712  -0.60303  -0.59631
 Alpha  occ. eigenvalues --   -0.59517  -0.59353  -0.59071  -0.59003  -0.58911
 Alpha  occ. eigenvalues --   -0.58811  -0.56687  -0.56668  -0.54526  -0.54399
 Alpha  occ. eigenvalues --   -0.54085  -0.53688  -0.53531  -0.53416  -0.53015
 Alpha  occ. eigenvalues --   -0.52832  -0.52700  -0.52031  -0.52019  -0.51551
 Alpha  occ. eigenvalues --   -0.51121  -0.50543  -0.50507  -0.50028  -0.49977
 Alpha  occ. eigenvalues --   -0.49678  -0.49660  -0.49206  -0.48909  -0.48696
 Alpha  occ. eigenvalues --   -0.48575  -0.48110  -0.48060  -0.47623  -0.47591
 Alpha  occ. eigenvalues --   -0.47577  -0.47337  -0.47156  -0.47034  -0.46898
 Alpha  occ. eigenvalues --   -0.46779  -0.46630  -0.46484  -0.46268  -0.45954
 Alpha  occ. eigenvalues --   -0.45783  -0.45610  -0.45544  -0.45209  -0.45048
 Alpha  occ. eigenvalues --   -0.44890  -0.44628  -0.44528  -0.44237  -0.44009
 Alpha  occ. eigenvalues --   -0.44007  -0.43947  -0.43831  -0.43533  -0.43433
 Alpha  occ. eigenvalues --   -0.43425  -0.43306  -0.43206  -0.43081  -0.42835
 Alpha  occ. eigenvalues --   -0.42574  -0.42488  -0.42236  -0.42142  -0.41898
 Alpha  occ. eigenvalues --   -0.41815  -0.41612  -0.41465  -0.41344  -0.41216
 Alpha  occ. eigenvalues --   -0.41110  -0.40996  -0.40920  -0.40704  -0.40609
 Alpha  occ. eigenvalues --   -0.40512  -0.40258  -0.40164  -0.39983  -0.39491
 Alpha  occ. eigenvalues --   -0.39487  -0.39271  -0.39175  -0.39091  -0.38853
 Alpha  occ. eigenvalues --   -0.38780  -0.38709  -0.38484  -0.38426  -0.38280
 Alpha  occ. eigenvalues --   -0.38043  -0.37817  -0.37790  -0.37666  -0.37617
 Alpha  occ. eigenvalues --   -0.37386  -0.37263  -0.37179  -0.37048  -0.37013
 Alpha  occ. eigenvalues --   -0.36865  -0.36827  -0.36727  -0.36399  -0.36076
 Alpha  occ. eigenvalues --   -0.36044  -0.35676  -0.35665  -0.35280  -0.35112
 Alpha  occ. eigenvalues --   -0.34801  -0.34697  -0.34044  -0.33743  -0.33466
 Alpha  occ. eigenvalues --   -0.33433  -0.32958  -0.32846  -0.32267  -0.32262
 Alpha  occ. eigenvalues --   -0.32100  -0.32092  -0.31973  -0.31465  -0.31164
 Alpha  occ. eigenvalues --   -0.30754  -0.29930  -0.29918  -0.29419  -0.29283
 Alpha  occ. eigenvalues --   -0.28978  -0.28677  -0.28366  -0.27108  -0.27009
 Alpha  occ. eigenvalues --   -0.26098  -0.25995  -0.25955  -0.25514  -0.25478
 Alpha  occ. eigenvalues --   -0.25259  -0.25140  -0.25077  -0.21235  -0.21057
 Alpha  occ. eigenvalues --   -0.18713  -0.17922
 Alpha virt. eigenvalues --   -0.11246  -0.10261  -0.05878  -0.05328  -0.04237
 Alpha virt. eigenvalues --   -0.04011  -0.01973  -0.01915  -0.01334  -0.00903
 Alpha virt. eigenvalues --    0.00474   0.00872   0.01004   0.01027   0.01398

 Mulliken charges:
               1
     1  Mg  12.000000
     2  C    6.000000
     3  C    6.000000
     4  C    6.000000
     5  C    6.000000
     6  N    7.000000
     7  C    6.000000
     8  C    6.000000
     9  C    6.000000
    10  C    6.000000
    11  C    6.000000
    12  C    6.000000
    13  C    6.000000
    14  H    1.000000
    15  N    7.000000
    16  C    6.000000
    17  C    6.000000
    18  C    6.000000
    19  C    6.000000
    20  C    6.000000
    21  C    6.000000
    22  O    8.000000
    23  C    6.000000
    24  N    7.000000
    25  C    6.000000
    26  C    6.000000
    27  C    6.000000
    28  C    6.000000
    29  C    6.000000
    30  C    6.000000
    31  C    6.000000
    32  N    7.000000
    33  C    6.000000
    34  C    6.000000
    35  C    6.000000
    36  C    6.000000
    37  C    6.000000
    38  C    6.000000
    39  O    8.000000
    40  C    6.000000
    41  C    6.000000
    42  O    8.000000
    43  O    8.000000
    44  C    6.000000
    45  H    1.000000
    46  H    1.000000
    47  H    1.000000
    48  H    1.000000
    49  H    1.000000
    50  H    1.000000
    51  H    1.000000
    52  H    1.000000
    53  H    1.000000
    54  H    1.000000
    55  H    1.000000
    56  H    1.000000
    57  H    1.000000
    58  H    1.000000
    59  H    1.000000
    60  H    1.000000
    61  H    1.000000
    62  H    1.000000
    63  H    1.000000
    64  H    1.000000
    65  H    1.000000
    66  H    1.000000
    67  H    1.000000
    68  H    1.000000
    69  H    1.000000
    70  H    1.000000
    71  H    1.000000
    72  H    1.000000
    73  H    1.000000
    74  H    1.000000
    75  H    1.000000
    76  H    1.000000
    77  H    1.000000
    78  H    1.000000
    79  H    1.000000
    80  Mg  12.000000
    81  C    6.000000
    82  C    6.000000
    83  C    6.000000
    84  C    6.000000
    85  N    7.000000
    86  C    6.000000
    87  C    6.000000
    88  C    6.000000
    89  C    6.000000
    90  C    6.000000
    91  C    6.000000
    92  C    6.000000
    93  H    1.000000
    94  N    7.000000
    95  C    6.000000
    96  C    6.000000
    97  C    6.000000
    98  C    6.000000
    99  C    6.000000
   100  C    6.000000
   101  O    8.000000
   102  C    6.000000
   103  N    7.000000
   104  C    6.000000
   105  C    6.000000
   106  C    6.000000
   107  C    6.000000
   108  C    6.000000
   109  C    6.000000
   110  C    6.000000
   111  N    7.000000
   112  C    6.000000
   113  C    6.000000
   114  C    6.000000
   115  C    6.000000
   116  C    6.000000
   117  C    6.000000
   118  O    8.000000
   119  C    6.000000
   120  C    6.000000
   121  O    8.000000
   122  O    8.000000
   123  C    6.000000
   124  H    1.000000
   125  H    1.000000
   126  H    1.000000
   127  H    1.000000
   128  H    1.000000
   129  H    1.000000
   130  H    1.000000
   131  H    1.000000
   132  H    1.000000
   133  H    1.000000
   134  H    1.000000
   135  H    1.000000
   136  H    1.000000
   137  H    1.000000
   138  H    1.000000
   139  H    1.000000
   140  H    1.000000
   141  H    1.000000
   142  H    1.000000
   143  H    1.000000
   144  H    1.000000
   145  H    1.000000
   146  H    1.000000
   147  H    1.000000
   148  H    1.000000
   149  H    1.000000
   150  H    1.000000
   151  H    1.000000
   152  H    1.000000
   153  H    1.000000
   154  H    1.000000
   155  H    1.000000
   156  H    1.000000
   157  H    1.000000
   158  H    1.000000
 Sum of Mulliken charges = 624.00000

 Dipole moment (field-independent basis, Debye):
    X=             -0.0000    Y=              0.0000    Z=             -0.0000  Tot=              0.0000
 Quadrupole moment (field-independent basis, Debye-Ang):
   XX=              0.0000   YY=              0.0000   ZZ=              0.0000
   XY=             -0.0000   XZ=             -0.0000   YZ=             -0.0000

 Normal termination of Gaussian 16 at Wed Oct 13 23:56:57 2021.
