 Gaussian 16, Revision A.03,
 Gaussian 16:  ES64L-G16RevA.03 25-Dec-2016

 ---------------------------------------------------
 #p PBE1PBE/Def2SVP td=(nstates=5) density=(current)
 ---------------------------------------------------

 --------------------------------
 TDDFT excited states in gaussian
 --------------------------------
 Symbolic Z-matrix:
 Charge =  0 Multiplicity = 1

                         Standard orientation:
 ---------------------------------------------------------------------
 Center     Atomic      Atomic             Coordinates (Angstroms)
 Number     Number       Type             X           Y           Z
 ---------------------------------------------------------------------
      1         12           0       -0.749939    0.246736   -0.012557
      2          6           0        2.825619   -0.019547   -0.263605
      3          6           0       -0.800715   -3.295571   -0.155272
      4          6           0       -4.240715    0.277709    0.086625
      5          6           0       -0.606229    3.573381   -0.282893
      6          7           0        0.918468   -1.462688   -0.405852
      7          6           0        2.257260   -1.296648   -0.347783
      8          6           0        2.977363   -2.677030   -0.557978
      9          6           0        1.735562   -3.623648   -0.726770
     10          6           0        0.508792   -2.771230   -0.328831
     11          6           0        1.639554   -4.229772   -2.170364
     12          6           0        3.873372   -3.078563    0.613435
     13          6           0        5.212120   -3.637906    0.259187
     14          1           0        6.198039   -3.967433    1.389352
     15          7           0       -2.284040   -1.234977    0.175090
     16          6           0       -2.078129   -2.607472    0.082943
     17          6           0       -3.357607   -3.266660    0.254394
     18          6           0       -4.338676   -2.304160    0.426052
     19          6           0       -3.648786   -0.998707    0.151771
     20          6           0       -3.584908   -4.743950    0.109278
     21          6           0       -5.903335   -2.434871    0.631401
     22          8           0       -6.705249   -1.544345    0.772856
     23          6           0       -6.491570   -3.812941    0.843883
     24          7           0       -2.206490    1.635979   -0.232853
     25          6           0       -3.568130    1.495793   -0.164480
     26          6           0       -4.309422    2.802754   -0.530802
     27          6           0       -3.165366    3.896340   -0.402051
     28          6           0       -1.901413    2.964571   -0.264629
     29          6           0       -5.020204    2.733227   -1.920231
     30          6           0       -3.332482    4.869160    0.804730
     31          6           0       -3.162760    4.243897    2.187499
     32          7           0        0.714541    1.548018   -0.255255
     33          6           0        0.656336    2.969217   -0.288395
     34          6           0        1.996326    3.534887   -0.428627
     35          6           0        2.847738    2.417097   -0.367431
     36          6           0        2.056138    1.243892   -0.251317
     37          6           0        2.325227    4.951760   -0.530159
     38          6           0        4.263165    2.063741   -0.404898
     39          8           0        5.243212    2.788938   -0.437739
     40          6           0        4.320833    0.442435   -0.429293
     41          6           0        5.263567    0.203138    0.752520
     42          8           0        5.030590    0.339685    1.967099
     43          8           0        6.454353   -0.129633    0.285522
     44          6           0        7.493822   -0.696694    1.237294
     45          1           0       -0.798463   -4.386870   -0.125158
     46          1           0       -5.327867    0.386638    0.107623
     47          1           0       -0.628758    4.664835   -0.292011
     48          1           0        3.629602   -2.508776   -1.414275
     49          1           0        1.756799   -4.447193   -0.011770
     50          1           0        1.592552   -5.317136   -2.229763
     51          1           0        2.356331   -3.810723   -2.876826
     52          1           0        0.704731   -4.054486   -2.703267
     53          1           0        3.411780   -4.019901    0.912148
     54          1           0        3.865115   -2.354691    1.429070
     55          1           0        5.834349   -3.134083   -0.482247
     56          1           0        4.961375   -4.597794   -0.192437
     57          1           0       -2.642202   -5.285819    0.037694
     58          1           0       -4.191362   -5.038261   -0.748696
     59          1           0       -4.081083   -5.229218    0.949929
     60          1           0       -6.078796   -4.309938    1.721717
     61          1           0       -6.260833   -4.294033   -0.106650
     62          1           0       -7.565599   -3.627480    0.829744
     63          1           0       -5.124400    2.845934    0.192584
     64          1           0       -2.850726    4.403072   -1.314637
     65          1           0       -6.106965    2.730992   -1.836690
     66          1           0       -4.715474    1.952178   -2.615914
     67          1           0       -4.665302    3.657066   -2.377390
     68          1           0       -4.208187    5.487089    0.605726
     69          1           0       -2.526483    5.600173    0.743118
     70          1           0       -3.051908    3.160393    2.210034
     71          1           0       -4.079995    4.479554    2.726599
     72          1           0       -2.253399    4.515728    2.722241
     73          1           0        3.387540    5.172219   -0.636915
     74          1           0        1.937464    5.396281    0.386349
     75          1           0        1.757583    5.360235   -1.367443
     76          1           0        4.869699    0.060393   -1.290025
     77          1           0        8.236132   -1.183847    0.604646
     78          1           0        7.097468   -1.483261    1.878695
     79          1           0        7.925832    0.050061    1.904509
 ---------------------------------------------------------------------

 SCF Done:  E(RPBE1PBE) =  -2033.67333860     A.U. after   16 cycles

 Excitation energies and oscillator strengths:

 Excited State   1:      Singlet-A      1.8203 eV  681.13 nm  f=0.3581  <S**2>=0.000
     155 ->158         0.17693
     156 ->157         0.69236
     156 <-157        -0.10910
 This state for optimization and/or second-order correction.
 Total Energy, E(TD-HF/TD-DFT) =  -2033.60644503
 Copying the excited state density for this state as the 1-particle RhoCI density.

 Excited State   2:      Singlet-A      2.2320 eV  555.49 nm  f=0.0924  <S**2>=0.000
     155 ->157         0.63922
     156 ->158        -0.29206

 Excited State   3:      Singlet-A      3.0750 eV  403.20 nm  f=0.0041  <S**2>=0.000
     152 ->157        -0.37755
     152 ->159         0.10760
     153 ->157        -0.23815
     154 ->157         0.50662

 Excited State   4:      Singlet-A      3.0942 eV  400.69 nm  f=0.0014  <S**2>=0.000
     152 ->157         0.29558
     153 ->157         0.41098
     154 ->157         0.44686
     156 ->158         0.10444

 Excited State   5:      Singlet-A      3.1668 eV  391.51 nm  f=0.0001  <S**2>=0.000
     151 ->157        -0.15533
     152 ->157        -0.45017
     153 ->157         0.47969
     154 ->157        -0.15527

 The electronic state is 1-A.
 Alpha  occ. eigenvalues --  -46.91712 -19.25577 -19.19653 -19.19628 -19.18271
 Alpha  occ. eigenvalues --  -14.41961 -14.41112 -14.39730 -14.39415 -10.35513
 Alpha  occ. eigenvalues --  -10.32685 -10.32606 -10.29426 -10.29234 -10.29087
 Alpha  occ. eigenvalues --  -10.28983 -10.28820 -10.28680 -10.28287 -10.27833
 Alpha  occ. eigenvalues --  -10.27676 -10.26667 -10.26551 -10.26413 -10.26300
 Alpha  occ. eigenvalues --  -10.26236 -10.26214 -10.26201 -10.25986 -10.25948
 Alpha  occ. eigenvalues --  -10.25843 -10.25171 -10.24918 -10.24490 -10.24266
 Alpha  occ. eigenvalues --  -10.24212 -10.23694 -10.23656 -10.23571 -10.23468
 Alpha  occ. eigenvalues --  -10.23213 -10.22962 -10.22819  -3.13979  -1.86805
 Alpha  occ. eigenvalues --   -1.86370  -1.86208  -1.10735  -1.06144  -1.04823
 Alpha  occ. eigenvalues --   -1.00099  -0.98385  -0.97737  -0.96861  -0.96375
 Alpha  occ. eigenvalues --   -0.85214  -0.83483  -0.83018  -0.82285  -0.81706
 Alpha  occ. eigenvalues --   -0.81236  -0.80753  -0.78386  -0.77858  -0.76634
 Alpha  occ. eigenvalues --   -0.75653  -0.75329  -0.74495  -0.72421  -0.71609
 Alpha  occ. eigenvalues --   -0.71245  -0.70273  -0.69479  -0.67053  -0.66082
 Alpha  occ. eigenvalues --   -0.64405  -0.63161  -0.61963  -0.60653  -0.59886
 Alpha  occ. eigenvalues --   -0.59619  -0.59134  -0.58648  -0.56396  -0.54109
 Alpha  occ. eigenvalues --   -0.53920  -0.53480  -0.52387  -0.51962  -0.50641
 Alpha  occ. eigenvalues --   -0.50273  -0.49993  -0.49631  -0.49150  -0.48502
 Alpha  occ. eigenvalues --   -0.47806  -0.47733  -0.47527  -0.47258  -0.46957
 Alpha  occ. eigenvalues --   -0.46638  -0.46199  -0.45570  -0.45459  -0.44714
 Alpha  occ. eigenvalues --   -0.44385  -0.44203  -0.43876  -0.43843  -0.43560
 Alpha  occ. eigenvalues --   -0.43217  -0.43070  -0.42742  -0.42237  -0.42151
 Alpha  occ. eigenvalues --   -0.41499  -0.41349  -0.41061  -0.40914  -0.40566
 Alpha  occ. eigenvalues --   -0.40295  -0.39900  -0.39699  -0.39221  -0.39000
 Alpha  occ. eigenvalues --   -0.38817  -0.38415  -0.38248  -0.37936  -0.37872
 Alpha  occ. eigenvalues --   -0.37768  -0.37226  -0.36970  -0.36729  -0.36231
 Alpha  occ. eigenvalues --   -0.35730  -0.35265  -0.35140  -0.34542  -0.34024
 Alpha  occ. eigenvalues --   -0.33563  -0.33057  -0.32529  -0.31723  -0.31080
 Alpha  occ. eigenvalues --   -0.30660  -0.29110  -0.28672  -0.27630  -0.26917
 Alpha  occ. eigenvalues --   -0.26081  -0.25843  -0.25682  -0.25523  -0.21041
 Alpha  occ. eigenvalues --   -0.18638
 Alpha virt. eigenvalues --   -0.11158  -0.05497  -0.03594  -0.02057   0.00602
 Alpha virt. eigenvalues --    0.00861   0.01359   0.01739   0.02754   0.03747
 Alpha virt. eigenvalues --    0.04489   0.05212   0.05822   0.06742   0.06964

 Mulliken charges:
               1
     1  Mg   0.987802
     2  C    0.033385
     3  C   -0.058805
     4  C   -0.051033
     5  C   -0.097175
     6  N   -0.354313
     7  C    0.031423
     8  C   -0.114809
     9  C   -0.114488
    10  C    0.070879
    11  C    0.009202
    12  C    0.035797
    13  C   -0.166825
    14  H    0.040014
    15  N   -0.480605
    16  C    0.189134
    17  C   -0.176110
    18  C   -0.083012
    19  C    0.146509
    20  C    0.045127
    21  C    0.054700
    22  O   -0.226337
    23  C   -0.023410
    24  N   -0.440761
    25  C    0.062473
    26  C   -0.105401
    27  C   -0.111409
    28  C    0.089034
    29  C    0.019956
    30  C   -0.018517
    31  C   -0.069744
    32  N   -0.559671
    33  C    0.172593
    34  C   -0.172582
    35  C   -0.043689
    36  C    0.181626
    37  C    0.074633
    38  C    0.139697
    39  O   -0.211624
    40  C   -0.168217
    41  C    0.280811
    42  O   -0.294477
    43  O   -0.343905
    44  C    0.131428
    45  H    0.005170
    46  H    0.025162
    47  H    0.000155
    48  H    0.053844
    49  H    0.047653
    50  H    0.039007
    51  H    0.044142
    52  H    0.033457
    53  H    0.034994
    54  H    0.077589
    55  H    0.055527
    56  H    0.044309
    57  H    0.025423
    58  H    0.059180
    59  H    0.043031
    60  H    0.079037
    61  H    0.041537
    62  H    0.052814
    63  H    0.054660
    64  H    0.056369
    65  H    0.055122
    66  H    0.055128
    67  H    0.033195
    68  H    0.047821
    69  H    0.033874
    70  H    0.052899
    71  H    0.051574
    72  H    0.048445
    73  H    0.068157
    74  H    0.056402
    75  H    0.048821
    76  H    0.072355
    77  H    0.059928
    78  H    0.058504
    79  H    0.075412
 Sum of Mulliken charges =  -0.00000

 Dipole moment (field-independent basis, Debye):
    X=             -1.7935    Y=             -2.4634    Z=             -2.2654  Tot=              3.7970
 Quadrupole moment (field-independent basis, Debye-Ang):
   XX=           -272.3538   YY=           -220.5082   ZZ=           -259.7704
   XY=            -27.7075   XZ=              2.4879   YZ=              0.7987

 Normal termination of Gaussian 16 at Wed Oct 13 16:56:20 2021.
