 Gaussian 16, Revision A.03,
 Gaussian 16:  ES64L-G16RevA.03 25-Dec-2016

 --------------------------------------------------------
 #p PBE1PBE/Def2SVP td=(nstates=5) density=(transition=1)
 --------------------------------------------------------

 --------------------------------
 TDDFT excited states in gaussian
 --------------------------------
 Symbolic Z-matrix:
 Charge =  0 Multiplicity = 1

                         Standard orientation:
 ---------------------------------------------------------------------
 Center     Atomic      Atomic             Coordinates (Angstroms)
 Number     Number       Type             X           Y           Z
 ---------------------------------------------------------------------
      1         12           0       23.643688    0.534284   -0.071456
      2          6           0       22.567539   -2.555605   -1.153363
      3          6           0       23.779468   -0.770272    3.088725
      4          6           0       24.416816    3.626897    1.043185
      5          6           0       22.910107    1.885335   -3.190053
      6          7           0       23.058579   -1.471529    0.820332
      7          6           0       22.858217   -2.571450    0.202652
      8          6           0       22.756316   -3.902241    1.112043
      9          6           0       22.858830   -3.207768    2.527250
     10          6           0       23.179416   -1.679879    2.168012
     11          6           0       21.499766   -3.234119    3.404370
     12          6           0       23.878395   -4.997618    0.848611
     13          6           0       23.494888   -6.504113    1.067730
     14          1           0       22.188166   -6.772146    1.751294
     15          7           0       24.107113    1.294571    1.736276
     16          6           0       24.202859    0.567368    2.987349
     17          6           0       24.660059    1.508049    4.004881
     18          6           0       24.740962    2.810902    3.453082
     19          6           0       24.460079    2.614582    2.012879
     20          6           0       24.959807    0.953268    5.350843
     21          6           0       25.155130    4.160608    4.084765
     22          8           0       25.093881    5.228536    3.551852
     23          6           0       25.506368    4.094584    5.584879
     24          7           0       23.579105    2.547189   -0.874842
     25          6           0       23.925928    3.634768   -0.262340
     26          6           0       23.573245    4.901191   -1.093016
     27          6           0       23.199519    4.338100   -2.485166
     28          6           0       23.239431    2.817063   -2.206575
     29          6           0       22.444280    5.709932   -0.419317
     30          6           0       24.159698    4.835780   -3.608794
     31          6           0       24.000547    6.316466   -3.990132
     32          7           0       22.885696   -0.159792   -1.860420
     33          6           0       22.744892    0.500808   -3.067906
     34          6           0       22.316113   -0.483875   -4.026014
     35          6           0       22.173830   -1.734465   -3.353488
     36          6           0       22.586723   -1.426031   -2.028656
     37          6           0       22.021470   -0.219899   -5.386512
     38          6           0       21.893547   -3.131693   -3.448469
     39          8           0       21.454850   -3.781104   -4.444154
     40          6           0       22.031935   -3.679799   -1.975288
     41          6           0       20.745911   -4.224197   -1.595080
     42          8           0       19.800828   -3.552545   -1.182222
     43          8           0       20.755531   -5.554275   -1.930228
     44          6           0       19.421426   -6.184463   -1.839960
     45          1           0       23.807814   -1.151201    4.111284
     46          1           0       24.700098    4.591876    1.470245
     47          1           0       22.763141    2.345472   -4.169876
     48          1           0       21.737253   -4.248699    0.938183
     49          1           0       23.626687   -3.694561    3.128194
     50          1           0       20.666269   -3.418411    2.725969
     51          1           0       21.365983   -2.273889    3.902287
     52          1           0       21.451364   -3.978969    4.199368
     53          1           0       24.653705   -4.745022    1.571440
     54          1           0       24.483179   -4.864957   -0.049121
     55          1           0       24.243284   -7.072291    1.620025
     56          1           0       23.359751   -6.979296    0.096069
     57          1           0       24.052210    0.891767    5.952015
     58          1           0       25.810136    1.437051    5.831669
     59          1           0       25.323800   -0.062282    5.196881
     60          1           0       26.473663    3.642342    5.805992
     61          1           0       24.670895    3.512848    5.973012
     62          1           0       25.467976    5.040727    6.123908
     63          1           0       24.525585    5.429826   -1.126559
     64          1           0       22.164669    4.591566   -2.715136
     65          1           0       21.788106    5.145511    0.243589
     66          1           0       21.689846    6.168265   -1.059603
     67          1           0       22.951330    6.488621    0.150387
     68          1           0       23.953305    4.274209   -4.518862
     69          1           0       25.193871    4.643042   -3.321417
     70          1           0       23.281984    6.757986   -3.299589
     71          1           0       23.443659    6.379695   -4.925121
     72          1           0       24.893459    6.927499   -4.120008
     73          1           0       22.835951    0.422880   -5.720735
     74          1           0       21.097298    0.322759   -5.584659
     75          1           0       21.897039   -1.171754   -5.903862
     76          1           0       22.744707   -4.497165   -2.087811
     77          1           0       18.814908   -5.717262   -2.616332
     78          1           0       19.022112   -6.149705   -0.826874
     79          1           0       19.544684   -7.237012   -2.095482
     80         12           0      -23.717196    0.551692    0.259310
     81          6           0      -21.122109   -1.809318    0.712689
     82          6           0      -25.572590   -1.912301   -0.862937
     83          6           0      -25.608877    2.913326   -1.073453
     84          6           0      -21.234359    3.024335    0.850858
     85          7           0      -23.339660   -1.679480    0.155341
     86          6           0      -22.325740   -2.410862    0.444029
     87          6           0      -22.706861   -3.905596    0.441076
     88          6           0      -23.994101   -3.948440   -0.529855
     89          6           0      -24.314494   -2.396312   -0.492114
     90          6           0      -23.758344   -4.496630   -1.992761
     91          6           0      -23.133260   -4.391412    1.923322
     92          6           0      -22.844325   -5.854314    2.391896
     93          1           0      -22.812144   -6.951299    1.264757
     94          7           0      -25.477557    0.519106   -0.642356
     95          6           0      -26.123695   -0.662710   -0.972456
     96          6           0      -27.436916   -0.316251   -1.621815
     97          6           0      -27.448074    1.140891   -1.643718
     98          6           0      -26.178265    1.661811   -1.130230
     99          6           0      -28.374333   -1.396903   -2.126647
    100          6           0      -28.573480    2.034831   -2.116033
    101          8           0      -28.520591    3.271938   -2.155673
    102          6           0      -29.845712    1.413058   -2.528716
    103          7           0      -23.490267    2.761618    0.020814
    104          6           0      -24.426534    3.445030   -0.612225
    105          6           0      -24.210129    5.007090   -0.385089
    106          6           0      -22.712801    4.995153    0.243363
    107          6           0      -22.473932    3.497899    0.418980
    108          6           0      -24.397859    5.867636   -1.678073
    109          6           0      -22.468823    5.777688    1.575340
    110          6           0      -21.606930    7.011505    1.496160
    111          7           0      -21.635099    0.659628    0.911047
    112          6           0      -20.814336    1.755382    1.090099
    113          6           0      -19.502790    1.335334    1.359502
    114          6           0      -19.574083   -0.059007    1.179174
    115          6           0      -20.855694   -0.454106    0.876722
    116          6           0      -18.343978    2.147397    1.654311
    117          6           0      -18.766706   -1.210367    1.300368
    118          8           0      -17.586744   -1.453066    1.673151
    119          6           0      -19.685858   -2.382014    0.729905
    120          6           0      -19.530711   -3.606669    1.554826
    121          8           0      -19.818292   -3.760289    2.740078
    122          8           0      -19.080779   -4.646781    0.681719
    123          6           0      -18.843728   -5.966846    1.279728
    124          1           0      -26.195413   -2.779156   -1.095232
    125          1           0      -26.273730    3.686205   -1.463060
    126          1           0      -20.498646    3.790083    1.108038
    127          1           0      -21.946629   -4.425981   -0.140880
    128          1           0      -24.707965   -4.659633   -0.115696
    129          1           0      -22.698188   -4.571809   -2.233705
    130          1           0      -24.163716   -3.820498   -2.745298
    131          1           0      -24.223166   -5.482201   -2.016607
    132          1           0      -24.187051   -4.185186    2.111312
    133          1           0      -22.663145   -3.720873    2.642950
    134          1           0      -23.556896   -6.228233    3.127804
    135          1           0      -21.799272   -5.878857    2.703194
    136          1           0      -29.411282   -1.204052   -1.849268
    137          1           0      -28.106544   -2.394451   -1.778312
    138          1           0      -28.217238   -1.537937   -3.195723
    139          1           0      -29.691963    0.707134   -3.345374
    140          1           0      -30.550125    2.184744   -2.839350
    141          1           0      -30.384634    0.878026   -1.746788
    142          1           0      -24.855497    5.411671    0.394515
    143          1           0      -21.953082    5.236577   -0.501496
    144          1           0      -24.548596    5.223146   -2.544292
    145          1           0      -23.501399    6.486754   -1.638574
    146          1           0      -25.216202    6.558034   -1.477845
    147          1           0      -21.973871    5.093816    2.265216
    148          1           0      -23.428130    6.037998    2.023081
    149          1           0      -21.480458    7.157739    0.424262
    150          1           0      -20.633419    6.763080    1.920431
    151          1           0      -22.082944    7.900284    1.908534
    152          1           0      -18.629441    2.816544    2.465571
    153          1           0      -18.084878    2.899216    0.908777
    154          1           0      -17.521317    1.508623    1.976244
    155          1           0      -19.379538   -2.581928   -0.297384
    156          1           0      -18.421215   -6.653009    0.545257
    157          1           0      -19.808807   -6.425486    1.495874
    158          1           0      -18.122634   -5.867746    2.090401
 ---------------------------------------------------------------------

 SCF Done:  E(RPBE1PBE) =  -4067.35868563     A.U. after   16 cycles

 Excitation energies and oscillator strengths:

 Excited State   1:      Singlet-A      1.9096 eV  649.28 nm  f=0.3723  <S**2>=0.000
     310 -> 316       -0.19439
     312 -> 314        0.68533
 This state for optimization and/or second-order correction.
 Total Energy, E(TD-HF/TD-DFT) =  -4067.28851091
 Copying the excited state density for this state as the 1-particle RhoCI density.

 Excited State   2:      Singlet-A      1.9488 eV  636.21 nm  f=0.3524  <S**2>=0.000
     309 -> 315        0.20420
     311 -> 313        0.68090

 Excited State   3:      Singlet-A      2.0019 eV  619.34 nm  f=0.0000  <S**2>=0.000
     312 -> 313        0.70711

 Excited State   4:      Singlet-A      2.2083 eV  561.45 nm  f=0.1032  <S**2>=0.000
     310 -> 314        0.65628
     312 -> 316        0.25137

 Excited State   5:      Singlet-A      2.2100 eV  561.00 nm  f=0.0000  <S**2>=0.000
     311 -> 314        0.70711

 The electronic state is 1-A.
 Alpha  occ. eigenvalues --  -46.92784 -46.91788 -19.25432 -19.24613 -19.20400
 Alpha  occ. eigenvalues --  -19.20166 -19.19514 -19.19174 -19.18757 -19.18641
 Alpha  occ. eigenvalues --  -14.41650 -14.41575 -14.41145 -14.41051 -14.39657
 Alpha  occ. eigenvalues --  -14.39300 -14.38639 -14.38294 -10.36291 -10.35518
 Alpha  occ. eigenvalues --  -10.33220 -10.32199 -10.32022 -10.31660 -10.29431
 Alpha  occ. eigenvalues --  -10.29240 -10.28659 -10.28458 -10.28396 -10.28392
 Alpha  occ. eigenvalues --  -10.28371 -10.28339 -10.28301 -10.28176 -10.28150
 Alpha  occ. eigenvalues --  -10.28094 -10.28065 -10.27960 -10.27922 -10.26862
 Alpha  occ. eigenvalues --  -10.26835 -10.26811 -10.26730 -10.26712 -10.26667
 Alpha  occ. eigenvalues --  -10.26508 -10.26483 -10.26288 -10.26153 -10.26068
 Alpha  occ. eigenvalues --  -10.26065 -10.25984 -10.25578 -10.25482 -10.25481
 Alpha  occ. eigenvalues --  -10.25420 -10.25418 -10.25404 -10.25368 -10.25353
 Alpha  occ. eigenvalues --  -10.25267 -10.25121 -10.25098 -10.24946 -10.24761
 Alpha  occ. eigenvalues --  -10.24679 -10.24619 -10.24407 -10.24368 -10.24211
 Alpha  occ. eigenvalues --  -10.23961 -10.23884 -10.23856 -10.23622 -10.23559
 Alpha  occ. eigenvalues --  -10.23401 -10.23347 -10.23295 -10.23099 -10.23061
 Alpha  occ. eigenvalues --  -10.22953 -10.22844 -10.22822 -10.22385 -10.22376
 Alpha  occ. eigenvalues --  -10.22188  -3.14821  -3.13978  -1.87664  -1.87203
 Alpha  occ. eigenvalues --   -1.87030  -1.86812  -1.86357  -1.86205  -1.10253
 Alpha  occ. eigenvalues --   -1.08675  -1.07086  -1.04092  -1.02032  -1.02008
 Alpha  occ. eigenvalues --   -1.01569  -1.01534  -1.00431  -0.99986  -0.99854
 Alpha  occ. eigenvalues --   -0.98956  -0.98246  -0.98223  -0.96080  -0.95311
 Alpha  occ. eigenvalues --   -0.87364  -0.86924  -0.83828  -0.83584  -0.82933
 Alpha  occ. eigenvalues --   -0.82567  -0.82189  -0.82011  -0.81901  -0.81799
 Alpha  occ. eigenvalues --   -0.81638  -0.81286  -0.81112  -0.81076  -0.78587
 Alpha  occ. eigenvalues --   -0.78262  -0.78179  -0.77702  -0.76996  -0.76550
 Alpha  occ. eigenvalues --   -0.76224  -0.75792  -0.75783  -0.75339  -0.75014
 Alpha  occ. eigenvalues --   -0.74560  -0.73271  -0.72736  -0.72046  -0.71685
 Alpha  occ. eigenvalues --   -0.71269  -0.70647  -0.70218  -0.70019  -0.69575
 Alpha  occ. eigenvalues --   -0.69151  -0.67700  -0.66740  -0.66675  -0.65877
 Alpha  occ. eigenvalues --   -0.63725  -0.63404  -0.63115  -0.62944  -0.62645
 Alpha  occ. eigenvalues --   -0.62308  -0.61617  -0.61321  -0.60427  -0.60166
 Alpha  occ. eigenvalues --   -0.60087  -0.60022  -0.59779  -0.59275  -0.59155
 Alpha  occ. eigenvalues --   -0.58611  -0.56118  -0.55823  -0.55073  -0.54724
 Alpha  occ. eigenvalues --   -0.54453  -0.53947  -0.53903  -0.53663  -0.53029
 Alpha  occ. eigenvalues --   -0.52874  -0.52436  -0.52313  -0.52128  -0.51872
 Alpha  occ. eigenvalues --   -0.51485  -0.50518  -0.50338  -0.50147  -0.49998
 Alpha  occ. eigenvalues --   -0.49745  -0.49077  -0.48828  -0.48546  -0.48546
 Alpha  occ. eigenvalues --   -0.48090  -0.47835  -0.47733  -0.47625  -0.47534
 Alpha  occ. eigenvalues --   -0.47339  -0.47133  -0.47071  -0.47019  -0.46727
 Alpha  occ. eigenvalues --   -0.46652  -0.46454  -0.46090  -0.45927  -0.45723
 Alpha  occ. eigenvalues --   -0.45568  -0.45496  -0.45416  -0.45263  -0.45059
 Alpha  occ. eigenvalues --   -0.44980  -0.44787  -0.44475  -0.44232  -0.44068
 Alpha  occ. eigenvalues --   -0.43767  -0.43686  -0.43554  -0.43421  -0.43257
 Alpha  occ. eigenvalues --   -0.43121  -0.43067  -0.43035  -0.42769  -0.42646
 Alpha  occ. eigenvalues --   -0.42466  -0.42445  -0.42424  -0.42300  -0.42011
 Alpha  occ. eigenvalues --   -0.41657  -0.41633  -0.41527  -0.41251  -0.41120
 Alpha  occ. eigenvalues --   -0.41064  -0.40988  -0.40888  -0.40689  -0.40351
 Alpha  occ. eigenvalues --   -0.40300  -0.40143  -0.39880  -0.39729  -0.39662
 Alpha  occ. eigenvalues --   -0.39166  -0.39044  -0.38987  -0.38892  -0.38783
 Alpha  occ. eigenvalues --   -0.38730  -0.38469  -0.38398  -0.38175  -0.38134
 Alpha  occ. eigenvalues --   -0.37859  -0.37782  -0.37752  -0.37557  -0.37486
 Alpha  occ. eigenvalues --   -0.37471  -0.37088  -0.36765  -0.36585  -0.36469
 Alpha  occ. eigenvalues --   -0.36450  -0.36369  -0.36261  -0.36045  -0.35963
 Alpha  occ. eigenvalues --   -0.35861  -0.35643  -0.35513  -0.35457  -0.35266
 Alpha  occ. eigenvalues --   -0.35120  -0.35006  -0.34649  -0.34292  -0.33966
 Alpha  occ. eigenvalues --   -0.33491  -0.33146  -0.32913  -0.32872  -0.32585
 Alpha  occ. eigenvalues --   -0.32434  -0.31938  -0.31554  -0.31455  -0.31369
 Alpha  occ. eigenvalues --   -0.31035  -0.30671  -0.29785  -0.29536  -0.29066
 Alpha  occ. eigenvalues --   -0.28948  -0.28785  -0.28554  -0.27415  -0.26934
 Alpha  occ. eigenvalues --   -0.26221  -0.26041  -0.25941  -0.25747  -0.25360
 Alpha  occ. eigenvalues --   -0.25286  -0.25008  -0.24931  -0.21105  -0.20586
 Alpha  occ. eigenvalues --   -0.19306  -0.18808
 Alpha virt. eigenvalues --   -0.11167  -0.10902  -0.06062  -0.05111  -0.04418
 Alpha virt. eigenvalues --   -0.04193  -0.02248  -0.02139  -0.00539  -0.00090
 Alpha virt. eigenvalues --   -0.00025   0.00906   0.01159   0.01418   0.01537

 Mulliken charges:
               1
     1  Mg  12.001100
     2  C    5.989774
     3  C    6.016356
     4  C    6.007355
     5  C    5.984433
     6  N    6.995758
     7  C    6.026721
     8  C    5.990384
     9  C    6.008508
    10  C    5.963104
    11  C    6.003931
    12  C    5.994334
    13  C    6.000493
    14  H    1.003213
    15  N    7.005356
    16  C    5.960187
    17  C    5.983089
    18  C    5.978678
    19  C    5.979440
    20  C    6.004080
    21  C    5.987132
    22  O    7.973109
    23  C    6.003748
    24  N    7.000642
    25  C    5.974451
    26  C    6.002983
    27  C    5.988865
    28  C    6.036043
    29  C    6.002738
    30  C    5.995484
    31  C    6.001938
    32  N    6.997232
    33  C    6.040290
    34  C    6.025223
    35  C    6.005629
    36  C    6.020212
    37  C    5.996932
    38  C    6.018513
    39  O    8.031455
    40  C    6.000551
    41  C    6.004461
    42  O    8.007311
    43  O    8.000553
    44  C    5.998265
    45  H    0.992744
    46  H    0.994142
    47  H    1.007531
    48  H    0.998050
    49  H    0.997274
    50  H    0.987579
    51  H    1.004392
    52  H    0.993751
    53  H    1.009530
    54  H    0.995700
    55  H    1.003168
    56  H    0.995885
    57  H    0.981401
    58  H    0.985593
    59  H    0.985566
    60  H    0.990767
    61  H    0.996249
    62  H    0.986009
    63  H    1.003254
    64  H    1.003060
    65  H    1.002160
    66  H    0.990367
    67  H    1.003446
    68  H    0.995080
    69  H    1.007406
    70  H    1.005317
    71  H    0.999169
    72  H    1.004077
    73  H    1.016484
    74  H    1.023965
    75  H    1.013090
    76  H    1.007330
    77  H    0.999343
    78  H    1.006590
    79  H    1.004478
    80  Mg  12.000003
    81  C    6.000008
    82  C    5.999958
    83  C    6.000030
    84  C    6.000030
    85  N    7.000013
    86  C    5.999965
    87  C    6.000004
    88  C    5.999988
    89  C    6.000023
    90  C    5.999997
    91  C    5.999996
    92  C    6.000003
    93  H    0.999965
    94  N    6.999996
    95  C    6.000046
    96  C    6.000026
    97  C    5.999999
    98  C    6.000030
    99  C    5.999993
   100  C    6.000030
   101  O    8.000022
   102  C    5.999993
   103  N    7.000034
   104  C    6.000002
   105  C    6.000006
   106  C    6.000002
   107  C    5.999952
   108  C    5.999988
   109  C    5.999999
   110  C    6.000002
   111  N    7.000006
   112  C    5.999930
   113  C    5.999974
   114  C    5.999986
   115  C    6.000002
   116  C    6.000005
   117  C    6.000005
   118  O    7.999935
   119  C    5.999983
   120  C    6.000007
   121  O    8.000012
   122  O    7.999977
   123  C    6.000007
   124  H    1.000010
   125  H    1.000006
   126  H    1.000009
   127  H    0.999977
   128  H    1.000011
   129  H    0.999987
   130  H    0.999986
   131  H    1.000001
   132  H    1.000006
   133  H    1.000023
   134  H    1.000021
   135  H    1.000006
   136  H    1.000033
   137  H    1.000017
   138  H    1.000007
   139  H    0.999992
   140  H    1.000025
   141  H    1.000023
   142  H    1.000026
   143  H    0.999988
   144  H    0.999977
   145  H    1.000005
   146  H    1.000016
   147  H    1.000020
   148  H    1.000013
   149  H    0.999976
   150  H    1.000008
   151  H    1.000020
   152  H    1.000015
   153  H    0.999956
   154  H    0.999984
   155  H    0.999955
   156  H    0.999959
   157  H    1.000004
   158  H    1.000005
 Sum of Mulliken charges = 624.00000

 Dipole moment (field-independent basis, Debye):
    X=             -2.8134    Y=             -3.6325    Z=             -9.0399  Tot=             10.1405
 Quadrupole moment (field-independent basis, Debye-Ang):
   XX=           -130.2201   YY=             -1.7229   ZZ=             -0.1825
   XY=            -86.1286   XZ=           -211.5066   YZ=             -5.3551

 Normal termination of Gaussian 16 at Fri Oct 15 09:53:51 2021.
