 Gaussian 16, Revision A.03,
 Gaussian 16:  ES64L-G16RevA.03 25-Dec-2016

 --------------------------------------------------------
 #p PBE1PBE/Def2SVP td=(nstates=5) density=(transition=1)
 --------------------------------------------------------

 --------------------------------
 TDDFT excited states in gaussian
 --------------------------------
 Symbolic Z-matrix:
 Charge =  0 Multiplicity = 1

                         Standard orientation:
 ---------------------------------------------------------------------
 Center     Atomic      Atomic             Coordinates (Angstroms)
 Number     Number       Type             X           Y           Z
 ---------------------------------------------------------------------
      1         12           0       12.994383   -0.105074    0.401287
      2          6           0        9.685165   -0.262955   -0.407294
      3          6           0       13.492843    1.993845   -2.402281
      4          6           0       16.284900   -0.110233    1.022337
      5          6           0       12.378279   -2.095033    3.132451
      6          7           0       11.823855    0.509894   -1.385122
      7          6           0       10.427242    0.407219   -1.416625
      8          6           0        9.821047    1.104195   -2.667508
      9          6           0       11.118627    1.722565   -3.252403
     10          6           0       12.259091    1.340307   -2.326364
     11          6           0       11.539758    1.493799   -4.766448
     12          6           0        8.688004    2.191084   -2.404002
     13          6           0        8.189040    2.840832   -3.722465
     14          1           0        6.781500    2.394666   -4.120726
     15          7           0       14.684394    0.881568   -0.560785
     16          6           0       14.604546    1.860087   -1.528181
     17          6           0       15.982187    2.233573   -1.826538
     18          6           0       16.788193    1.605179   -0.823433
     19          6           0       15.940116    0.762461   -0.040585
     20          6           0       16.295078    3.170283   -2.928941
     21          6           0       18.350441    1.737417   -0.773626
     22          8           0       19.080810    1.035013   -0.045533
     23          6           0       19.053094    2.701887   -1.693172
     24          7           0       14.105922   -0.951538    1.769341
     25          6           0       15.521833   -0.834096    1.854113
     26          6           0       16.090071   -1.835681    2.833819
     27          6           0       14.873960   -2.038816    3.735484
     28          6           0       13.687914   -1.632124    2.872574
     29          6           0       16.568428   -3.159097    2.147527
     30          6           0       14.892650   -1.123843    4.980377
     31          6           0       15.641385   -1.588471    6.200624
     32          7           0       11.401240   -1.085837    1.267614
     33          6           0       11.243649   -1.724379    2.438309
     34          6           0        9.880188   -2.145620    2.570106
     35          6           0        9.211346   -1.589349    1.500509
     36          6           0       10.177860   -0.907171    0.745242
     37          6           0        9.392723   -2.929075    3.738658
     38          6           0        7.943702   -1.463218    0.918514
     39          8           0        6.849570   -1.862338    1.267736
     40          6           0        8.196756   -0.568822   -0.384390
     41          6           0        7.708201   -1.332314   -1.564060
     42          8           0        8.173744   -2.348679   -2.019090
     43          8           0        6.732788   -0.673337   -2.196671
     44          6           0        6.185175   -1.323794   -3.448984
     45          1           0       13.538687    2.755133   -3.183629
     46          1           0       17.354558   -0.116050    1.241263
     47          1           0       12.081954   -2.619834    4.042682
     48          1           0        9.440135    0.335111   -3.339534
     49          1           0       11.076380    2.808146   -3.158992
     50          1           0       12.010393    2.338682   -5.269921
     51          1           0       10.720652    1.022605   -5.310010
     52          1           0       12.354254    0.772094   -4.705965
     53          1           0        9.156666    2.874635   -1.697100
     54          1           0        7.859108    1.701032   -1.893401
     55          1           0        8.934620    2.709892   -4.506730
     56          1           0        8.110844    3.910066   -3.527884
     57          1           0       16.810531    2.608734   -3.708324
     58          1           0       16.812228    4.010390   -2.465368
     59          1           0       15.383147    3.607114   -3.336212
     60          1           0       20.121974    2.705463   -1.479647
     61          1           0       18.698000    3.679484   -1.364237
     62          1           0       18.878475    2.584118   -2.762308
     63          1           0       16.944771   -1.421728    3.369541
     64          1           0       14.741446   -3.071355    4.057952
     65          1           0       15.720954   -3.774694    1.848500
     66          1           0       17.227468   -3.714641    2.815242
     67          1           0       17.144348   -2.840023    1.279544
     68          1           0       13.895437   -0.831303    5.306687
     69          1           0       15.286167   -0.145290    4.704924
     70          1           0       16.407877   -0.839588    6.397986
     71          1           0       16.186720   -2.458856    5.835411
     72          1           0       15.009747   -1.835185    7.054164
     73          1           0        8.940484   -2.267276    4.476284
     74          1           0       10.066919   -3.654593    4.194870
     75          1           0        8.571704   -3.531767    3.349950
     76          1           0        7.628951    0.355866   -0.278662
     77          1           0        7.040604   -1.570933   -4.078069
     78          1           0        5.550239   -0.659744   -4.036079
     79          1           0        5.644151   -2.220826   -3.146973
     80         12           0      -12.695002   -0.448776   -0.684771
     81          6           0      -12.169434    2.734020    1.064288
     82          6           0       -9.333778   -0.227860   -1.480419
     83          6           0      -12.811775   -3.582787   -1.262876
     84          6           0      -15.978986   -0.393996    0.772698
     85          7           0      -10.887863    1.109293   -0.083566
     86          6           0      -10.915449    2.302952    0.603951
     87          6           0       -9.450869    2.858955    0.740466
     88          6           0       -8.638093    2.063637   -0.295909
     89          6           0       -9.664299    0.919285   -0.644091
     90          6           0       -8.187122    2.794273   -1.628456
     91          6           0       -8.887024    2.797714    2.201361
     92          6           0       -8.052815    3.978045    2.650500
     93          1           0       -6.504423    3.780616    2.658515
     94          7           0      -11.336601   -1.700144   -1.396198
     95          6           0      -10.046974   -1.438338   -1.771492
     96          6           0       -9.412012   -2.678764   -2.294904
     97          6           0      -10.431817   -3.661543   -2.203230
     98          6           0      -11.570633   -3.006551   -1.564463
     99          6           0       -7.952618   -2.856212   -2.744791
    100          6           0      -10.327665   -5.169355   -2.449776
    101          8           0       -9.260601   -5.594714   -2.884003
    102          6           0      -11.371433   -6.094812   -2.246630
    103          7           0      -14.138412   -1.859675   -0.032970
    104          6           0      -14.005098   -3.070576   -0.682936
    105          6           0      -15.326357   -3.899786   -0.446305
    106          6           0      -16.189794   -2.963590    0.473174
    107          6           0      -15.429740   -1.625574    0.309048
    108          6           0      -16.070573   -4.361788   -1.729161
    109          6           0      -16.418185   -3.374805    1.983494
    110          6           0      -17.492052   -4.432964    2.290690
    111          7           0      -13.932897    0.859698    0.605747
    112          6           0      -15.260333    0.784974    0.977641
    113          6           0      -15.710623    2.000199    1.611896
    114          6           0      -14.515841    2.812087    1.653302
    115          6           0      -13.404910    2.094526    1.087113
    116          6           0      -17.093356    2.206989    2.148800
    117          6           0      -14.014087    4.024694    2.124612
    118          8           0      -14.511600    4.871667    2.854186
    119          6           0      -12.474867    3.995379    1.897334
    120          6           0      -12.187680    5.239466    1.089531
    121          8           0      -11.296428    6.043467    1.373857
    122          8           0      -12.923135    5.357923   -0.157902
    123          6           0      -12.351548    6.366453   -1.048788
    124          1           0       -8.295481   -0.150159   -1.808088
    125          1           0      -13.058042   -4.599994   -1.574466
    126          1           0      -17.023364   -0.491477    1.076102
    127          1           0       -9.425599    3.867375    0.325029
    128          1           0       -7.787557    1.555953    0.158992
    129          1           0       -7.117604    2.960073   -1.500798
    130          1           0       -8.651920    3.775873   -1.716130
    131          1           0       -8.431801    2.276362   -2.555760
    132          1           0       -8.170540    1.995344    2.379150
    133          1           0       -9.704240    2.734338    2.920183
    134          1           0       -8.448241    4.295763    3.615295
    135          1           0       -8.237882    4.794267    1.951468
    136          1           0       -7.914496   -3.489820   -3.631299
    137          1           0       -7.459944   -3.276079   -1.867893
    138          1           0       -7.517561   -1.904094   -3.045536
    139          1           0      -12.155994   -5.881966   -2.973458
    140          1           0      -11.743011   -6.149670   -1.223342
    141          1           0      -10.837077   -7.035632   -2.383001
    142          1           0      -15.171285   -4.820469    0.115188
    143          1           0      -17.166282   -2.765291    0.031969
    144          1           0      -17.074107   -3.945446   -1.640447
    145          1           0      -16.115617   -5.450398   -1.723803
    146          1           0      -15.463870   -3.948923   -2.536041
    147          1           0      -16.697877   -2.434136    2.458974
    148          1           0      -15.517586   -3.820059    2.406817
    149          1           0      -17.910195   -4.587805    1.295649
    150          1           0      -18.309274   -4.008383    2.875514
    151          1           0      -17.152989   -5.374943    2.721069
    152          1           0      -17.247529    1.397630    2.861222
    153          1           0      -17.875864    2.054138    1.405768
    154          1           0      -17.180751    3.103091    2.763298
    155          1           0      -12.010039    4.107574    2.876659
    156          1           0      -12.730515    5.921185   -1.969471
    157          1           0      -11.281684    6.499284   -0.888161
    158          1           0      -12.926997    7.277788   -0.885751
 ---------------------------------------------------------------------

 SCF Done:  E(RPBE1PBE) =  -4067.34928490     A.U. after   16 cycles

 Excitation energies and oscillator strengths:

 Excited State   1:      Singlet-A      1.8105 eV  684.82 nm  f=0.3863  <S**2>=0.000
     309 -> 316        0.15509
     312 -> 313        0.69918
     312 <- 313       -0.12503
 This state for optimization and/or second-order correction.
 Total Energy, E(TD-HF/TD-DFT) =  -4067.28275110
 Copying the excited state density for this state as the 1-particle RhoCI density.

 Excited State   2:      Singlet-A      1.8704 eV  662.87 nm  f=0.3346  <S**2>=0.000
     310 -> 315        0.19141
     311 -> 314        0.68614

 Excited State   3:      Singlet-A      1.8976 eV  653.39 nm  f=0.0000  <S**2>=0.000
     312 -> 314        0.70710

 Excited State   4:      Singlet-A      1.9105 eV  648.96 nm  f=0.0000  <S**2>=0.000
     311 -> 313        0.70709

 Excited State   5:      Singlet-A      2.2323 eV  555.41 nm  f=0.0740  <S**2>=0.000
     308 -> 314        0.10198
     310 -> 314        0.63192
     311 -> 315       -0.29398

 The electronic state is 1-A.
 Alpha  occ. eigenvalues --  -46.94100 -46.90912 -19.25515 -19.24355 -19.20306
 Alpha  occ. eigenvalues --  -19.19490 -19.18903 -19.18892 -19.18885 -19.18149
 Alpha  occ. eigenvalues --  -14.42156 -14.42042 -14.41600 -14.41378 -14.40286
 Alpha  occ. eigenvalues --  -14.38874 -14.38606 -14.38470 -10.36433 -10.35470
 Alpha  occ. eigenvalues --  -10.32488 -10.31966 -10.31926 -10.30671 -10.29890
 Alpha  occ. eigenvalues --  -10.29774 -10.29520 -10.29502 -10.29427 -10.29037
 Alpha  occ. eigenvalues --  -10.29036 -10.28831 -10.28748 -10.28382 -10.27985
 Alpha  occ. eigenvalues --  -10.27851 -10.27344 -10.27208 -10.27163 -10.27113
 Alpha  occ. eigenvalues --  -10.27090 -10.26996 -10.26637 -10.26624 -10.26608
 Alpha  occ. eigenvalues --  -10.26576 -10.26536 -10.26405 -10.26203 -10.26161
 Alpha  occ. eigenvalues --  -10.26085 -10.25965 -10.25934 -10.25930 -10.25768
 Alpha  occ. eigenvalues --  -10.25620 -10.25618 -10.25616 -10.25611 -10.25227
 Alpha  occ. eigenvalues --  -10.25084 -10.25032 -10.25007 -10.24977 -10.24950
 Alpha  occ. eigenvalues --  -10.24617 -10.24556 -10.24491 -10.24400 -10.24361
 Alpha  occ. eigenvalues --  -10.24284 -10.24073 -10.24068 -10.24023 -10.23905
 Alpha  occ. eigenvalues --  -10.23721 -10.23525 -10.23465 -10.23283 -10.23270
 Alpha  occ. eigenvalues --  -10.23263 -10.23204 -10.23203 -10.23047 -10.22567
 Alpha  occ. eigenvalues --  -10.22523  -3.16093  -3.13267  -1.88874  -1.88518
 Alpha  occ. eigenvalues --   -1.88279  -1.86112  -1.85660  -1.85488  -1.11639
 Alpha  occ. eigenvalues --   -1.08645  -1.05083  -1.05059  -1.03765  -1.03105
 Alpha  occ. eigenvalues --   -1.01914  -1.01158  -1.00064  -0.99527  -0.98534
 Alpha  occ. eigenvalues --   -0.97969  -0.97859  -0.97744  -0.96732  -0.95805
 Alpha  occ. eigenvalues --   -0.87625  -0.87280  -0.83395  -0.83215  -0.83160
 Alpha  occ. eigenvalues --   -0.83134  -0.82948  -0.82738  -0.82204  -0.81503
 Alpha  occ. eigenvalues --   -0.81234  -0.81080  -0.80906  -0.80314  -0.79197
 Alpha  occ. eigenvalues --   -0.78652  -0.78277  -0.78086  -0.77886  -0.76816
 Alpha  occ. eigenvalues --   -0.76798  -0.75834  -0.75518  -0.75495  -0.74920
 Alpha  occ. eigenvalues --   -0.74205  -0.72752  -0.72476  -0.71873  -0.71634
 Alpha  occ. eigenvalues --   -0.71532  -0.71280  -0.70486  -0.70108  -0.69600
 Alpha  occ. eigenvalues --   -0.69579  -0.67650  -0.67306  -0.66349  -0.66272
 Alpha  occ. eigenvalues --   -0.63883  -0.63468  -0.63335  -0.63009  -0.62675
 Alpha  occ. eigenvalues --   -0.62117  -0.61340  -0.60571  -0.60252  -0.59975
 Alpha  occ. eigenvalues --   -0.59799  -0.59438  -0.59411  -0.59205  -0.58711
 Alpha  occ. eigenvalues --   -0.58573  -0.56642  -0.56379  -0.54844  -0.54820
 Alpha  occ. eigenvalues --   -0.54593  -0.54393  -0.53738  -0.53723  -0.53510
 Alpha  occ. eigenvalues --   -0.53478  -0.52908  -0.52424  -0.51816  -0.51508
 Alpha  occ. eigenvalues --   -0.51189  -0.51158  -0.50474  -0.50238  -0.49673
 Alpha  occ. eigenvalues --   -0.49325  -0.49250  -0.48838  -0.48695  -0.48390
 Alpha  occ. eigenvalues --   -0.48268  -0.48082  -0.48030  -0.47997  -0.47822
 Alpha  occ. eigenvalues --   -0.47433  -0.47408  -0.47291  -0.47081  -0.46814
 Alpha  occ. eigenvalues --   -0.46564  -0.46371  -0.46322  -0.46294  -0.45909
 Alpha  occ. eigenvalues --   -0.45878  -0.45556  -0.45208  -0.45023  -0.44897
 Alpha  occ. eigenvalues --   -0.44596  -0.44482  -0.44461  -0.44461  -0.44286
 Alpha  occ. eigenvalues --   -0.44016  -0.43841  -0.43837  -0.43590  -0.43589
 Alpha  occ. eigenvalues --   -0.43421  -0.43269  -0.43000  -0.42977  -0.42817
 Alpha  occ. eigenvalues --   -0.42743  -0.42601  -0.42381  -0.42372  -0.42156
 Alpha  occ. eigenvalues --   -0.41851  -0.41830  -0.41613  -0.41427  -0.41339
 Alpha  occ. eigenvalues --   -0.41135  -0.41100  -0.40878  -0.40858  -0.40575
 Alpha  occ. eigenvalues --   -0.40568  -0.40195  -0.40126  -0.39958  -0.39713
 Alpha  occ. eigenvalues --   -0.39460  -0.39442  -0.39239  -0.39113  -0.39007
 Alpha  occ. eigenvalues --   -0.38903  -0.38696  -0.38581  -0.38570  -0.38444
 Alpha  occ. eigenvalues --   -0.38360  -0.38223  -0.38014  -0.37718  -0.37375
 Alpha  occ. eigenvalues --   -0.37323  -0.37112  -0.36891  -0.36807  -0.36718
 Alpha  occ. eigenvalues --   -0.36706  -0.36554  -0.36375  -0.36332  -0.36131
 Alpha  occ. eigenvalues --   -0.35998  -0.35795  -0.35598  -0.35339  -0.35150
 Alpha  occ. eigenvalues --   -0.35021  -0.34930  -0.34808  -0.34751  -0.34222
 Alpha  occ. eigenvalues --   -0.33767  -0.33370  -0.33001  -0.32847  -0.32523
 Alpha  occ. eigenvalues --   -0.32483  -0.32123  -0.31991  -0.31687  -0.31516
 Alpha  occ. eigenvalues --   -0.31306  -0.30236  -0.29637  -0.29504  -0.29192
 Alpha  occ. eigenvalues --   -0.29123  -0.28487  -0.28382  -0.27075  -0.27073
 Alpha  occ. eigenvalues --   -0.26616  -0.26211  -0.26032  -0.26001  -0.25420
 Alpha  occ. eigenvalues --   -0.25135  -0.24821  -0.24403  -0.21475  -0.21347
 Alpha  occ. eigenvalues --   -0.19074  -0.18795
 Alpha virt. eigenvalues --   -0.11525  -0.11296  -0.06074  -0.05119  -0.04339
 Alpha virt. eigenvalues --   -0.03846  -0.02386  -0.02117  -0.02077   0.00129
 Alpha virt. eigenvalues --    0.00166   0.00178   0.00975   0.01354   0.01431

 Mulliken charges:
               1
     1  Mg  12.001470
     2  C    6.024813
     3  C    6.004567
     4  C    5.970373
     5  C    5.986473
     6  N    7.011813
     7  C    5.961094
     8  C    6.014691
     9  C    5.993275
    10  C    6.024712
    11  C    5.995797
    12  C    6.002811
    13  C    5.997593
    14  H    1.004050
    15  N    6.993949
    16  C    6.036286
    17  C    6.023616
    18  C    6.007572
    19  C    6.044855
    20  C    5.995246
    21  C    6.012491
    22  O    8.025078
    23  C    5.994438
    24  N    6.982119
    25  C    6.038491
    26  C    5.992064
    27  C    6.005324
    28  C    5.979105
    29  C    5.998930
    30  C    6.007352
    31  C    6.000607
    32  N    7.003760
    33  C    5.977456
    34  C    5.965013
    35  C    6.001299
    36  C    5.968416
    37  C    6.004055
    38  C    5.984637
    39  O    7.973665
    40  C    5.997187
    41  C    5.998195
    42  O    7.996125
    43  O    7.998314
    44  C    6.000883
    45  H    1.016305
    46  H    1.004298
    47  H    0.986058
    48  H    0.998133
    49  H    1.001139
    50  H    1.000243
    51  H    1.014533
    52  H    0.998413
    53  H    0.994804
    54  H    1.007378
    55  H    0.993075
    56  H    0.997732
    57  H    1.018295
    58  H    1.017204
    59  H    1.015178
    60  H    1.013634
    61  H    1.005673
    62  H    1.005484
    63  H    0.998438
    64  H    0.998800
    65  H    1.012076
    66  H    1.005522
    67  H    0.992554
    68  H    1.004664
    69  H    0.984854
    70  H    0.992822
    71  H    0.995430
    72  H    1.000546
    73  H    0.978002
    74  H    0.982390
    75  H    0.984103
    76  H    0.992371
    77  H    0.994995
    78  H    0.995021
    79  H    0.999774
    80  Mg  11.999787
    81  C    6.000429
    82  C    6.000227
    83  C    5.999103
    84  C    6.000144
    85  N    7.000362
    86  C    5.999181
    87  C    6.000139
    88  C    5.999882
    89  C    6.000772
    90  C    5.999721
    91  C    5.999956
    92  C    5.999828
    93  H    1.000540
    94  N    6.999766
    95  C    6.000837
    96  C    6.000837
    97  C    5.999998
    98  C    6.001190
    99  C    6.000059
   100  C    6.000465
   101  O    8.000729
   102  C    5.999841
   103  N    6.999950
   104  C    6.001157
   105  C    5.999702
   106  C    6.000193
   107  C    5.999001
   108  C    5.999993
   109  C    6.000117
   110  C    5.999993
   111  N    7.000058
   112  C    5.999200
   113  C    5.998817
   114  C    6.000177
   115  C    5.998894
   116  C    6.000035
   117  C    5.999384
   118  O    7.998966
   119  C    6.000147
   120  C    5.999862
   121  O    7.999725
   122  O    8.000078
   123  C    6.000086
   124  H    1.000724
   125  H    1.000112
   126  H    0.999532
   127  H    0.999915
   128  H    1.000488
   129  H    1.000529
   130  H    1.000169
   131  H    0.999786
   132  H    1.000151
   133  H    1.000120
   134  H    0.999986
   135  H    0.999772
   136  H    1.000383
   137  H    1.001012
   138  H    1.000514
   139  H    1.000034
   140  H    1.000340
   141  H    1.000394
   142  H    1.000108
   143  H    0.999901
   144  H    1.000130
   145  H    0.999938
   146  H    0.999863
   147  H    1.000169
   148  H    0.999851
   149  H    0.999759
   150  H    0.999889
   151  H    0.999839
   152  H    0.999365
   153  H    0.999204
   154  H    0.999459
   155  H    0.999857
   156  H    0.999777
   157  H    0.999867
   158  H    0.999738
 Sum of Mulliken charges = 624.00000

 Dipole moment (field-independent basis, Debye):
    X=              7.9408    Y=              4.6631    Z=             -5.2661  Tot=             10.6081
 Quadrupole moment (field-independent basis, Debye-Ang):
   XX=            191.2836   YY=              0.7780   ZZ=             -5.5597
   XY=             65.4371   XZ=            -63.6581   YZ=              1.5181

 Normal termination of Gaussian 16 at Fri Oct 15 05:55:10 2021.
