 Gaussian 16, Revision A.03,
 Gaussian 16:  ES64L-G16RevA.03 25-Dec-2016

 --------------------------------------------------------
 #p PBE1PBE/Def2SVP td=(nstates=5) density=(transition=1)
 --------------------------------------------------------

 --------------------------------
 TDDFT excited states in gaussian
 --------------------------------
 Symbolic Z-matrix:
 Charge =  0 Multiplicity = 1

                         Standard orientation:
 ---------------------------------------------------------------------
 Center     Atomic      Atomic             Coordinates (Angstroms)
 Number     Number       Type             X           Y           Z
 ---------------------------------------------------------------------
      1         12           0       19.594344    0.346448    0.469574
      2          6           0       17.390172   -1.699111   -1.401607
      3          6           0       20.681734    1.580788   -2.614674
      4          6           0       21.620099    2.391936    2.048128
      5          6           0       18.947087   -1.581350    3.289960
      6          7           0       19.041547   -0.022876   -1.716527
      7          6           0       18.029795   -0.777318   -2.228685
      8          6           0       17.884535   -0.759214   -3.760015
      9          6           0       19.094691    0.255492   -4.083531
     10          6           0       19.623005    0.591694   -2.720431
     11          6           0       20.248000   -0.367134   -4.965789
     12          6           0       16.495525   -0.222361   -4.236528
     13          6           0       15.433186   -1.067840   -4.928182
     14          1           0       14.543818   -0.483685   -6.017808
     15          7           0       20.922425    1.855766   -0.160670
     16          6           0       21.289464    2.169473   -1.477271
     17          6           0       22.352402    3.147140   -1.407301
     18          6           0       22.533744    3.520007   -0.077748
     19          6           0       21.633705    2.618127    0.667154
     20          6           0       22.867027    3.728926   -2.679563
     21          6           0       23.498312    4.510670    0.573314
     22          8           0       23.575468    4.720829    1.787623
     23          6           0       24.288675    5.371160   -0.331863
     24          7           0       20.301288    0.365257    2.371727
     25          6           0       20.977204    1.436661    2.886489
     26          6           0       20.926068    1.436184    4.451991
     27          6           0       20.180316    0.146497    4.769198
     28          6           0       19.832245   -0.458269    3.380662
     29          6           0       22.328665    1.599595    5.123712
     30          6           0       18.947200    0.461160    5.629753
     31          6           0       18.657163   -0.412874    6.795329
     32          7           0       18.506130   -1.365461    0.899264
     33          6           0       18.306323   -2.022737    2.086854
     34          6           0       17.400828   -3.121482    1.930242
     35          6           0       16.878779   -3.023588    0.548384
     36          6           0       17.610443   -1.905488   -0.015799
     37          6           0       17.021328   -4.138172    3.020501
     38          6           0       15.967681   -3.579820   -0.483472
     39          8           0       15.078967   -4.443145   -0.387439
     40          6           0       16.278179   -2.721332   -1.778125
     41          6           0       16.699717   -3.810262   -2.714554
     42          8           0       17.812928   -4.299323   -2.864058
     43          8           0       15.719998   -4.142435   -3.509964
     44          6           0       15.866186   -5.313608   -4.408061
     45          1           0       20.809740    1.979199   -3.622981
     46          1           0       22.279843    2.977502    2.691286
     47          1           0       18.702618   -2.129610    4.201756
     48          1           0       18.120009   -1.759616   -4.125280
     49          1           0       18.854595    1.218947   -4.534273
     50          1           0       20.273632   -1.452758   -5.055880
     51          1           0       21.218103   -0.086596   -4.557042
     52          1           0       20.173280    0.050358   -5.970055
     53          1           0       16.705565    0.579576   -4.944444
     54          1           0       15.942899    0.191826   -3.394188
     55          1           0       14.743782   -1.229039   -4.099296
     56          1           0       16.016595   -1.930128   -5.251132
     57          1           0       22.691168    4.802254   -2.736506
     58          1           0       22.386652    3.269985   -3.544060
     59          1           0       23.941409    3.601128   -2.808216
     60          1           0       23.627374    5.827348   -1.068638
     61          1           0       24.954672    4.797278   -0.976388
     62          1           0       24.798404    6.197189    0.163045
     63          1           0       20.340091    2.333713    4.649237
     64          1           0       20.784609   -0.515288    5.389436
     65          1           0       23.130502    1.853289    4.430471
     66          1           0       22.673286    0.707369    5.645151
     67          1           0       22.257561    2.298101    5.957330
     68          1           0       18.134917    0.384721    4.908069
     69          1           0       18.950905    1.450655    6.086236
     70          1           0       17.635227   -0.754241    6.632035
     71          1           0       18.845308    0.123645    7.725250
     72          1           0       19.226850   -1.341892    6.826135
     73          1           0       17.709005   -4.981697    2.972471
     74          1           0       15.987630   -4.442530    2.857084
     75          1           0       17.127001   -3.724945    4.023823
     76          1           0       15.332584   -2.280804   -2.093648
     77          1           0       16.680864   -5.223280   -5.125726
     78          1           0       14.960488   -5.570149   -4.957253
     79          1           0       16.050611   -6.276842   -3.933367
     80         12           0      -19.539330   -0.547865   -0.454761
     81          6           0      -18.308591    2.879797   -0.417880
     82          6           0      -16.270046   -1.566634   -0.202830
     83          6           0      -20.611613   -3.379184    0.965188
     84          6           0      -22.699741    0.638366   -0.843347
     85          7           0      -17.525970    0.586362   -0.127780
     86          6           0      -17.270785    2.001620   -0.227056
     87          6           0      -15.759655    2.242425   -0.284279
     88          6           0      -15.155122    0.840442   -0.590595
     89          6           0      -16.358753   -0.164464   -0.316134
     90          6           0      -14.628068    0.683147   -2.094976
     91          6           0      -15.144257    3.018227    0.843455
     92          6           0      -15.965572    3.156560    2.147064
     93          1           0      -15.517055    3.840738    3.451360
     94          7           0      -18.567641   -2.324282    0.162935
     95          6           0      -17.205937   -2.527735    0.202306
     96          6           0      -16.960361   -3.947279    0.606412
     97          6           0      -18.206228   -4.392724    1.040651
     98          6           0      -19.216244   -3.365382    0.797723
     99          6           0      -15.585591   -4.515761    0.605667
    100          6           0      -18.464502   -5.778664    1.700301
    101          8           0      -17.500786   -6.487819    1.929285
    102          6           0      -19.788846   -6.242041    2.210030
    103          7           0      -21.416723   -1.148091    0.119820
    104          6           0      -21.581899   -2.460155    0.562090
    105          6           0      -23.063854   -2.818069    0.674308
    106          6           0      -23.754538   -1.686065   -0.169368
    107          6           0      -22.587561   -0.712155   -0.347119
    108          6           0      -23.519651   -4.231085    0.227849
    109          6           0      -25.029220   -1.038707    0.460854
    110          6           0      -26.421059   -1.436490   -0.213589
    111          7           0      -20.387126    1.353082   -0.688058
    112          6           0      -21.719131    1.662002   -0.922367
    113          6           0      -21.827025    3.062711   -1.248768
    114          6           0      -20.537094    3.538087   -0.976253
    115          6           0      -19.706860    2.433744   -0.662540
    116          6           0      -23.153642    3.758265   -1.599925
    117          6           0      -19.690357    4.691443   -0.979935
    118          8           0      -20.044659    5.841717   -1.308191
    119          6           0      -18.155129    4.329636   -0.757842
    120          6           0      -17.718591    5.235369    0.323459
    121          8           0      -18.293637    5.432613    1.399063
    122          8           0      -16.501933    5.710030   -0.039743
    123          6           0      -15.934585    6.801830    0.812181
    124          1           0      -15.231421   -1.887969   -0.105306
    125          1           0      -20.947397   -4.314996    1.417384
    126          1           0      -23.710301    0.970232   -1.089004
    127          1           0      -15.750926    2.838870   -1.196605
    128          1           0      -14.416558    0.525053    0.146607
    129          1           0      -13.549871    0.591076   -1.970300
    130          1           0      -14.946321    1.544676   -2.682479
    131          1           0      -15.043693   -0.259777   -2.452069
    132          1           0      -14.843293    3.976087    0.419551
    133          1           0      -14.233690    2.442103    1.011300
    134          1           0      -16.237342    2.133672    2.409623
    135          1           0      -16.882114    3.710398    1.942823
    136          1           0      -15.325667   -4.666679    1.653003
    137          1           0      -14.924351   -3.803549    0.113015
    138          1           0      -15.572696   -5.428414    0.008817
    139          1           0      -20.234570   -5.706350    3.047299
    140          1           0      -19.746147   -7.240943    2.643172
    141          1           0      -20.362568   -6.253727    1.283416
    142          1           0      -23.148215   -2.694058    1.754561
    143          1           0      -23.957252   -2.152374   -1.133762
    144          1           0      -23.664940   -4.923842    1.057372
    145          1           0      -22.742536   -4.687296   -0.384484
    146          1           0      -24.414340   -4.106586   -0.383155
    147          1           0      -25.003348    0.050433    0.505415
    148          1           0      -24.988713   -1.347993    1.505344
    149          1           0      -27.048733   -1.614672    0.659193
    150          1           0      -26.388068   -2.319925   -0.851384
    151          1           0      -26.693684   -0.615074   -0.875241
    152          1           0      -23.066859    4.619754   -2.262417
    153          1           0      -23.467300    4.102314   -0.614951
    154          1           0      -23.787456    3.088521   -2.180739
    155          1           0      -17.612294    4.480326   -1.692126
    156          1           0      -14.957341    7.089643    0.423004
    157          1           0      -15.793727    6.467314    1.840149
    158          1           0      -16.685541    7.583221    0.704390
 ---------------------------------------------------------------------

 SCF Done:  E(RPBE1PBE) =  -4067.33579648     A.U. after   16 cycles

 Excitation energies and oscillator strengths:

 Excited State   1:      Singlet-A      1.8048 eV  686.98 nm  f=0.3427  <S**2>=0.000
     309 -> 316        0.15293
     312 -> 313        0.69762
     312 <- 313       -0.11782
 This state for optimization and/or second-order correction.
 Total Energy, E(TD-HF/TD-DFT) =  -4067.26947237
 Copying the excited state density for this state as the 1-particle RhoCI density.

 Excited State   2:      Singlet-A      1.8639 eV  665.20 nm  f=0.3688  <S**2>=0.000
     310 -> 315        0.18323
     311 -> 314        0.68968

 Excited State   3:      Singlet-A      1.9135 eV  647.94 nm  f=0.0000  <S**2>=0.000
     312 -> 314        0.70710

 Excited State   4:      Singlet-A      2.0055 eV  618.22 nm  f=0.0000  <S**2>=0.000
     311 -> 313        0.70711

 Excited State   5:      Singlet-A      2.2119 eV  560.54 nm  f=0.1058  <S**2>=0.000
     310 -> 314        0.65041
     311 -> 315       -0.26771

 The electronic state is 1-A.
 Alpha  occ. eigenvalues --  -46.92670 -46.91976 -19.26056 -19.25975 -19.19732
 Alpha  occ. eigenvalues --  -19.19525 -19.19387 -19.19068 -19.18511 -19.17592
 Alpha  occ. eigenvalues --  -14.41968 -14.41955 -14.41572 -14.41139 -14.39372
 Alpha  occ. eigenvalues --  -14.39248 -14.38873 -14.38487 -10.36216 -10.35729
 Alpha  occ. eigenvalues --  -10.32872 -10.32825 -10.32476 -10.30950 -10.29450
 Alpha  occ. eigenvalues --  -10.29362 -10.29249 -10.29228 -10.29164 -10.29002
 Alpha  occ. eigenvalues --  -10.28957 -10.28869 -10.28502 -10.28427 -10.28380
 Alpha  occ. eigenvalues --  -10.28271 -10.28162 -10.28057 -10.27095 -10.27007
 Alpha  occ. eigenvalues --  -10.26913 -10.26854 -10.26627 -10.26494 -10.26471
 Alpha  occ. eigenvalues --  -10.26429 -10.26408 -10.26376 -10.26204 -10.26201
 Alpha  occ. eigenvalues --  -10.25936 -10.25934 -10.25895 -10.25817 -10.25745
 Alpha  occ. eigenvalues --  -10.25602 -10.25557 -10.25454 -10.25362 -10.25357
 Alpha  occ. eigenvalues --  -10.25092 -10.25063 -10.24947 -10.24938 -10.24906
 Alpha  occ. eigenvalues --  -10.24885 -10.24825 -10.24730 -10.24669 -10.24369
 Alpha  occ. eigenvalues --  -10.24316 -10.24145 -10.23969 -10.23950 -10.23894
 Alpha  occ. eigenvalues --  -10.23869 -10.23635 -10.23545 -10.23525 -10.23492
 Alpha  occ. eigenvalues --  -10.23466 -10.23377 -10.23317 -10.22949 -10.22371
 Alpha  occ. eigenvalues --  -10.22009  -3.14739  -3.14151  -1.87550  -1.87136
 Alpha  occ. eigenvalues --   -1.86993  -1.86943  -1.86527  -1.86378  -1.12664
 Alpha  occ. eigenvalues --   -1.10887  -1.05227  -1.04541  -1.03372  -1.02362
 Alpha  occ. eigenvalues --   -1.01609  -1.01368  -1.00055  -0.99671  -0.98765
 Alpha  occ. eigenvalues --   -0.98462  -0.97453  -0.97257  -0.96310  -0.94855
 Alpha  occ. eigenvalues --   -0.86391  -0.86331  -0.83852  -0.83639  -0.83235
 Alpha  occ. eigenvalues --   -0.83212  -0.82963  -0.82874  -0.81883  -0.81101
 Alpha  occ. eigenvalues --   -0.81080  -0.80890  -0.80498  -0.79534  -0.78702
 Alpha  occ. eigenvalues --   -0.78586  -0.78065  -0.77905  -0.77191  -0.76752
 Alpha  occ. eigenvalues --   -0.76691  -0.76581  -0.75334  -0.75214  -0.74861
 Alpha  occ. eigenvalues --   -0.74518  -0.72889  -0.72271  -0.72069  -0.71884
 Alpha  occ. eigenvalues --   -0.71219  -0.70836  -0.70613  -0.70341  -0.69524
 Alpha  occ. eigenvalues --   -0.69506  -0.67531  -0.66810  -0.66245  -0.66073
 Alpha  occ. eigenvalues --   -0.64017  -0.63509  -0.63318  -0.62666  -0.62259
 Alpha  occ. eigenvalues --   -0.62148  -0.61310  -0.61280  -0.60552  -0.60227
 Alpha  occ. eigenvalues --   -0.59787  -0.59736  -0.59409  -0.59250  -0.58797
 Alpha  occ. eigenvalues --   -0.58121  -0.57107  -0.56749  -0.55280  -0.54094
 Alpha  occ. eigenvalues --   -0.54021  -0.53749  -0.53671  -0.53642  -0.53131
 Alpha  occ. eigenvalues --   -0.52508  -0.52443  -0.52301  -0.52027  -0.51794
 Alpha  occ. eigenvalues --   -0.51348  -0.51150  -0.50716  -0.50225  -0.49727
 Alpha  occ. eigenvalues --   -0.49638  -0.49170  -0.48916  -0.48829  -0.48776
 Alpha  occ. eigenvalues --   -0.48447  -0.48301  -0.47927  -0.47757  -0.47443
 Alpha  occ. eigenvalues --   -0.47433  -0.47257  -0.47127  -0.46961  -0.46911
 Alpha  occ. eigenvalues --   -0.46759  -0.46470  -0.46117  -0.45909  -0.45793
 Alpha  occ. eigenvalues --   -0.45491  -0.45349  -0.45314  -0.44997  -0.44634
 Alpha  occ. eigenvalues --   -0.44584  -0.44401  -0.44326  -0.44238  -0.43972
 Alpha  occ. eigenvalues --   -0.43941  -0.43631  -0.43575  -0.43498  -0.43342
 Alpha  occ. eigenvalues --   -0.43157  -0.42983  -0.42886  -0.42796  -0.42628
 Alpha  occ. eigenvalues --   -0.42456  -0.42395  -0.42264  -0.42223  -0.41856
 Alpha  occ. eigenvalues --   -0.41550  -0.41357  -0.41288  -0.41227  -0.41000
 Alpha  occ. eigenvalues --   -0.40989  -0.40825  -0.40666  -0.40479  -0.40357
 Alpha  occ. eigenvalues --   -0.40231  -0.40211  -0.40031  -0.39926  -0.39827
 Alpha  occ. eigenvalues --   -0.39695  -0.39542  -0.39297  -0.39170  -0.38886
 Alpha  occ. eigenvalues --   -0.38819  -0.38807  -0.38718  -0.38335  -0.38218
 Alpha  occ. eigenvalues --   -0.38092  -0.37908  -0.37722  -0.37653  -0.37557
 Alpha  occ. eigenvalues --   -0.37397  -0.37355  -0.37061  -0.37028  -0.36780
 Alpha  occ. eigenvalues --   -0.36719  -0.36655  -0.36433  -0.36330  -0.36123
 Alpha  occ. eigenvalues --   -0.35948  -0.35741  -0.35738  -0.35366  -0.35047
 Alpha  occ. eigenvalues --   -0.34890  -0.34836  -0.34439  -0.34317  -0.34026
 Alpha  occ. eigenvalues --   -0.33439  -0.33373  -0.32927  -0.32401  -0.32266
 Alpha  occ. eigenvalues --   -0.32144  -0.31754  -0.31578  -0.31378  -0.31366
 Alpha  occ. eigenvalues --   -0.30890  -0.30856  -0.29706  -0.29263  -0.29036
 Alpha  occ. eigenvalues --   -0.28877  -0.28292  -0.28102  -0.27280  -0.27084
 Alpha  occ. eigenvalues --   -0.26344  -0.25965  -0.25821  -0.25722  -0.25389
 Alpha  occ. eigenvalues --   -0.25266  -0.24707  -0.24285  -0.21255  -0.20835
 Alpha  occ. eigenvalues --   -0.18798  -0.18445
 Alpha virt. eigenvalues --   -0.11085  -0.11080  -0.05407  -0.05289  -0.04408
 Alpha virt. eigenvalues --   -0.03113  -0.02297  -0.02000  -0.01385  -0.00187
 Alpha virt. eigenvalues --    0.00170   0.01033   0.01047   0.01600   0.01773

 Mulliken charges:
               1
     1  Mg  12.000038
     2  C    5.999726
     3  C    6.000003
     4  C    6.000352
     5  C    5.999945
     6  N    6.999913
     7  C    6.000426
     8  C    5.999833
     9  C    6.000138
    10  C    5.999625
    11  C    6.000064
    12  C    5.999955
    13  C    5.999961
    14  H    1.000092
    15  N    7.000068
    16  C    5.999627
    17  C    5.999757
    18  C    5.999728
    19  C    5.999694
    20  C    6.000122
    21  C    5.999823
    22  O    7.999623
    23  C    6.000088
    24  N    7.000066
    25  C    5.999465
    26  C    6.000093
    27  C    5.999912
    28  C    6.000304
    29  C    6.000047
    30  C    5.999964
    31  C    5.999998
    32  N    7.000031
    33  C    6.000285
    34  C    6.000400
    35  C    6.000038
    36  C    6.000383
    37  C    5.999959
    38  C    6.000254
    39  O    8.000471
    40  C    6.000006
    41  C    6.000015
    42  O    8.000064
    43  O    8.000028
    44  C    5.999943
    45  H    0.999823
    46  H    0.999900
    47  H    1.000138
    48  H    1.000021
    49  H    0.999980
    50  H    0.999861
    51  H    1.000019
    52  H    0.999892
    53  H    1.000061
    54  H    1.000002
    55  H    1.000006
    56  H    1.000002
    57  H    0.999741
    58  H    0.999809
    59  H    0.999738
    60  H    0.999913
    61  H    0.999896
    62  H    0.999780
    63  H    0.999983
    64  H    1.000020
    65  H    1.000042
    66  H    0.999905
    67  H    0.999926
    68  H    0.999982
    69  H    1.000096
    70  H    1.000022
    71  H    1.000040
    72  H    0.999994
    73  H    1.000239
    74  H    1.000263
    75  H    1.000222
    76  H    1.000149
    77  H    1.000027
    78  H    1.000126
    79  H    1.000049
    80  Mg  11.999720
    81  C    5.972539
    82  C    5.991134
    83  C    6.031089
    84  C    6.007921
    85  N    6.976396
    86  C    6.025620
    87  C    5.996441
    88  C    6.002146
    89  C    5.988166
    90  C    6.002019
    91  C    5.998644
    92  C    5.994109
    93  H    1.001989
    94  N    7.008195
    95  C    5.968295
    96  C    5.972837
    97  C    5.998128
    98  C    5.954947
    99  C    6.004481
   100  C    5.988118
   101  O    7.984179
   102  C    6.001759
   103  N    7.008546
   104  C    5.960669
   105  C    6.010197
   106  C    5.988580
   107  C    6.031832
   108  C    5.999924
   109  C    5.993537
   110  C    6.001983
   111  N    7.000340
   112  C    6.030559
   113  C    6.023766
   114  C    6.001467
   115  C    6.035693
   116  C    6.001254
   117  C    6.016206
   118  O    8.032276
   119  C    6.007033
   120  C    6.003906
   121  O    8.001081
   122  O    8.002268
   123  C    6.000104
   124  H    0.986701
   125  H    0.994874
   126  H    1.015715
   127  H    0.995134
   128  H    1.000776
   129  H    0.994997
   130  H    0.986091
   131  H    1.002781
   132  H    0.997202
   133  H    1.007782
   134  H    1.009911
   135  H    0.993164
   136  H    0.982593
   137  H    0.985763
   138  H    0.982058
   139  H    0.989724
   140  H    0.989072
   141  H    0.992468
   142  H    0.999507
   143  H    1.006651
   144  H    1.002831
   145  H    1.004885
   146  H    0.991225
   147  H    0.994586
   148  H    1.008891
   149  H    1.004830
   150  H    1.005613
   151  H    0.997485
   152  H    1.014887
   153  H    1.015493
   154  H    1.013017
   155  H    1.005756
   156  H    1.004559
   157  H    1.004046
   158  H    0.998836
 Sum of Mulliken charges = 624.00000

 Dipole moment (field-independent basis, Debye):
    X=             -5.5704    Y=              8.0887    Z=             -1.9210  Tot=             10.0073
 Quadrupole moment (field-independent basis, Debye-Ang):
   XX=            210.5510   YY=             -4.9192   ZZ=              0.1731
   XY=           -157.1238   XZ=             42.0987   YZ=              1.0324

 Normal termination of Gaussian 16 at Fri Oct 15 12:01:18 2021.
