 Gaussian 16, Revision A.03,
 Gaussian 16:  ES64L-G16RevA.03 25-Dec-2016

 --------------------------------------------------------
 #p PBE1PBE/Def2SVP td=(nstates=5) density=(transition=1)
 --------------------------------------------------------

 --------------------------------
 TDDFT excited states in gaussian
 --------------------------------
 Symbolic Z-matrix:
 Charge =  0 Multiplicity = 1

                         Standard orientation:
 ---------------------------------------------------------------------
 Center     Atomic      Atomic             Coordinates (Angstroms)
 Number     Number       Type             X           Y           Z
 ---------------------------------------------------------------------
      1         12           0       -9.037059   -1.203552    0.386645
      2          6           0      -10.433839    1.969224   -0.077506
      3          6           0       -7.936551   -0.051510    3.468800
      4          6           0       -7.375354   -3.985670    0.650893
      5          6           0      -10.083039   -2.038299   -2.892501
      6          7           0       -8.827072    0.910664    1.414680
      7          6           0       -9.606795    1.948726    1.095491
      8          6           0       -9.445529    2.982276    2.159643
      9          6           0       -8.291357    2.464439    3.052561
     10          6           0       -8.347702    0.999878    2.665658
     11          6           0       -6.893731    3.071906    2.919944
     12          6           0      -10.761356    3.191222    2.974383
     13          6           0      -11.288469    4.644639    3.203102
     14          1           0      -10.266499    5.821639    3.278246
     15          7           0       -7.918206   -1.996074    1.956306
     16          6           0       -7.762872   -1.404344    3.202856
     17          6           0       -7.056542   -2.343293    4.012208
     18          6           0       -6.750172   -3.485857    3.169458
     19          6           0       -7.347286   -3.221178    1.868964
     20          6           0       -6.602178   -2.082862    5.465077
     21          6           0       -5.901169   -4.752484    3.478287
     22          8           0       -5.693526   -5.630452    2.702096
     23          6           0       -5.373751   -4.868655    4.894874
     24          7           0       -8.802778   -2.760157   -0.944074
     25          6           0       -7.995041   -3.792684   -0.614182
     26          6           0       -7.890482   -4.887062   -1.711897
     27          6           0       -8.989900   -4.357220   -2.729478
     28          6           0       -9.356860   -2.985274   -2.176356
     29          6           0       -6.362580   -4.981179   -2.289208
     30          6           0      -10.161734   -5.360751   -2.967248
     31          6           0      -11.447273   -5.148627   -2.187926
     32          7           0      -10.094929   -0.292450   -1.219044
     33          6           0      -10.510971   -0.780932   -2.428114
     34          6           0      -11.305973    0.294464   -3.118634
     35          6           0      -11.289286    1.379597   -2.213416
     36          6           0      -10.504654    1.011905   -1.070541
     37          6           0      -11.828541    0.292202   -4.529561
     38          6           0      -11.738682    2.752240   -1.994430
     39          8           0      -12.405091    3.462996   -2.752255
     40          6           0      -11.338114    3.092884   -0.562103
     41          6           0      -10.631112    4.415578   -0.641454
     42          8           0       -9.482598    4.575991   -1.011854
     43          8           0      -11.558102    5.333153   -0.420602
     44          6           0      -11.282932    6.701509   -0.829768
     45          1           0       -7.467451    0.346955    4.370293
     46          1           0       -6.979409   -4.993762    0.788033
     47          1           0      -10.418081   -2.302642   -3.897959
     48          1           0       -9.194854    3.931182    1.686533
     49          1           0       -8.584632    2.686374    4.078721
     50          1           0       -6.788071    3.894314    2.212203
     51          1           0       -6.173225    2.302189    2.641938
     52          1           0       -6.631341    3.439019    3.911908
     53          1           0      -10.769759    2.666241    3.929365
     54          1           0      -11.450182    2.649352    2.326459
     55          1           0      -11.805630    4.576164    4.160990
     56          1           0      -12.007759    4.879622    2.418975
     57          1           0       -5.537710   -2.257896    5.621500
     58          1           0       -7.045803   -2.786350    6.169806
     59          1           0       -6.842134   -1.087805    5.842081
     60          1           0       -6.150538   -4.733667    5.647808
     61          1           0       -4.551942   -4.161116    5.005664
     62          1           0       -4.848752   -5.814705    5.026904
     63          1           0       -8.154647   -5.877464   -1.341598
     64          1           0       -8.606841   -4.226189   -3.741406
     65          1           0       -6.427100   -4.553924   -3.289994
     66          1           0       -6.030624   -6.002799   -2.475462
     67          1           0       -5.644441   -4.361310   -1.751234
     68          1           0       -9.776991   -6.303404   -2.577794
     69          1           0      -10.388947   -5.495021   -4.024617
     70          1           0      -11.106509   -4.918726   -1.177673
     71          1           0      -11.915630   -6.127862   -2.284337
     72          1           0      -12.113299   -4.318905   -2.423325
     73          1           0      -11.567016   -0.540056   -5.183124
     74          1           0      -11.475130    1.186621   -5.042802
     75          1           0      -12.906092    0.419569   -4.430716
     76          1           0      -12.170509    3.325832    0.102233
     77          1           0      -10.377769    6.932781   -1.390367
     78          1           0      -11.155244    7.211515    0.125551
     79          1           0      -12.232906    7.182595   -1.062918
     80         12           0        9.398200   -0.513196   -0.122099
     81          6           0        7.811106    2.836071   -0.399698
     82          6           0       12.131226    1.226115    0.841893
     83          6           0       10.729769   -3.388704   -0.199568
     84          6           0        6.587118   -1.729834   -1.936355
     85          7           0        9.886475    1.755353    0.122353
     86          6           0        9.050362    2.858975    0.132576
     87          6           0        9.677439    4.129630    0.717584
     88          6           0       11.174842    3.694845    0.671846
     89          6           0       11.105533    2.124952    0.531694
     90          6           0       11.984438    4.310617   -0.425553
     91          6           0        9.148213    4.613668    2.109177
     92          6           0        9.167841    6.077596    2.397711
     93          1           0        9.507089    6.454374    3.836378
     94          7           0       11.223399   -1.057069    0.321224
     95          6           0       12.248579   -0.199966    0.773109
     96          6           0       13.351241   -1.019829    1.185210
     97          6           0       12.853602   -2.384681    1.017275
     98          6           0       11.589160   -2.290378    0.381570
     99          6           0       14.677737   -0.488047    1.843588
    100          6           0       13.577554   -3.626408    1.439560
    101          8           0       13.122656   -4.773459    1.209897
    102          6           0       14.852346   -3.605936    2.201193
    103          7           0        8.876793   -2.282400   -1.064478
    104          6           0        9.603387   -3.393992   -0.932673
    105          6           0        8.969243   -4.649972   -1.611966
    106          6           0        7.486159   -4.134835   -1.726254
    107          6           0        7.645805   -2.594013   -1.612619
    108          6           0        9.589469   -4.938929   -3.016823
    109          6           0        6.568135   -4.674664   -0.550446
    110          6           0        6.495071   -6.192436   -0.281325
    111          7           0        7.549351    0.329314   -0.960166
    112          6           0        6.505920   -0.330651   -1.599250
    113          6           0        5.491684    0.623171   -1.983003
    114          6           0        5.942527    1.858871   -1.501556
    115          6           0        7.241764    1.662817   -0.957934
    116          6           0        4.172698    0.323495   -2.612131
    117          6           0        5.593658    3.269209   -1.391393
    118          8           0        4.606767    3.926693   -1.694242
    119          6           0        6.826567    3.900907   -0.559353
    120          6           0        7.258855    5.059682   -1.321640
    121          8           0        7.727314    5.063254   -2.470906
    122          8           0        6.672679    6.162018   -0.768675
    123          6           0        6.880046    7.440814   -1.368793
    124          1           0       12.923025    1.834517    1.284286
    125          1           0       11.148607   -4.396043   -0.243441
    126          1           0        5.743315   -2.165114   -2.476494
    127          1           0        9.519747    4.927150   -0.008811
    128          1           0       11.644579    3.838580    1.644426
    129          1           0       12.153968    3.532245   -1.169555
    130          1           0       12.964696    4.594837   -0.043183
    131          1           0       11.556551    5.170268   -0.940944
    132          1           0        9.792987    4.163845    2.863639
    133          1           0        8.153487    4.189036    2.241806
    134          1           0        8.147645    6.392255    2.178881
    135          1           0        9.707310    6.646963    1.640688
    136          1           0       14.774820   -0.665035    2.914325
    137          1           0       14.840955    0.564574    1.613954
    138          1           0       15.428682   -1.052195    1.289095
    139          1           0       15.655895   -3.339623    1.514067
    140          1           0       14.987396   -4.622044    2.572849
    141          1           0       14.701094   -2.924241    3.037501
    142          1           0        9.138974   -5.477282   -0.922048
    143          1           0        6.985154   -4.343537   -2.671039
    144          1           0       10.138028   -5.876473   -2.922919
    145          1           0       10.208421   -4.146600   -3.436540
    146          1           0        8.693994   -5.095862   -3.619827
    147          1           0        5.535549   -4.403448   -0.768946
    148          1           0        6.847333   -4.103093    0.334507
    149          1           0        6.823127   -6.303915    0.752032
    150          1           0        7.244268   -6.615880   -0.950893
    151          1           0        5.487207   -6.591052   -0.396173
    152          1           0        4.064179   -0.756112   -2.505820
    153          1           0        4.270473    0.602980   -3.661106
    154          1           0        3.342008    0.895869   -2.199321
    155          1           0        6.483988    4.193870    0.432907
    156          1           0        7.547527    7.380867   -2.228713
    157          1           0        7.377721    8.034189   -0.601667
    158          1           0        5.934338    7.944098   -1.564794
 ---------------------------------------------------------------------

 SCF Done:  E(RPBE1PBE) =  -4067.37207133     A.U. after   16 cycles

 Excitation energies and oscillator strengths:

 Excited State   1:      Singlet-A      1.6361 eV  757.82 nm  f=0.0000  <S**2>=0.000
     312 -> 313        0.70708
 This state for optimization and/or second-order correction.
 Total Energy, E(TD-HF/TD-DFT) =  -4067.31194711
 Copying the excited state density for this state as the 1-particle RhoCI density.

 Excited State   2:      Singlet-A      1.8203 eV  681.14 nm  f=0.3889  <S**2>=0.000
     309 -> 316       -0.15115
     311 -> 313        0.70028
     311 <- 313       -0.12594

 Excited State   3:      Singlet-A      1.8764 eV  660.74 nm  f=0.3654  <S**2>=0.000
     310 -> 315       -0.18207
     312 -> 314        0.69039
     312 <- 314       -0.10321

 Excited State   4:      Singlet-A      2.0643 eV  600.61 nm  f=0.0000  <S**2>=0.000
     311 -> 314        0.70708

 Excited State   5:      Singlet-A      2.1829 eV  567.99 nm  f=0.0000  <S**2>=0.000
     310 -> 313        0.70707

 The electronic state is 1-A.
 Alpha  occ. eigenvalues --  -46.92269 -46.92143 -19.26746 -19.25318 -19.19965
 Alpha  occ. eigenvalues --  -19.19688 -19.19490 -19.19346 -19.18978 -19.17743
 Alpha  occ. eigenvalues --  -14.41608 -14.41354 -14.41025 -14.40942 -14.39349
 Alpha  occ. eigenvalues --  -14.39151 -14.38839 -14.38500 -10.35975 -10.35968
 Alpha  occ. eigenvalues --  -10.32978 -10.32351 -10.31785 -10.31178 -10.29146
 Alpha  occ. eigenvalues --  -10.29055 -10.28797 -10.28648 -10.28635 -10.28511
 Alpha  occ. eigenvalues --  -10.28378 -10.28318 -10.28257 -10.28226 -10.28071
 Alpha  occ. eigenvalues --  -10.27928 -10.27588 -10.27574 -10.27420 -10.26913
 Alpha  occ. eigenvalues --  -10.26894 -10.26798 -10.26791 -10.26717 -10.26652
 Alpha  occ. eigenvalues --  -10.26358 -10.26295 -10.26014 -10.25969 -10.25957
 Alpha  occ. eigenvalues --  -10.25940 -10.25830 -10.25719 -10.25706 -10.25665
 Alpha  occ. eigenvalues --  -10.25445 -10.25396 -10.25380 -10.25201 -10.25058
 Alpha  occ. eigenvalues --  -10.24969 -10.24829 -10.24783 -10.24668 -10.24534
 Alpha  occ. eigenvalues --  -10.24531 -10.24297 -10.24282 -10.24266 -10.24194
 Alpha  occ. eigenvalues --  -10.23967 -10.23930 -10.23744 -10.23712 -10.23527
 Alpha  occ. eigenvalues --  -10.23484 -10.23424 -10.23407 -10.23248 -10.23116
 Alpha  occ. eigenvalues --  -10.23104 -10.22992 -10.22827 -10.22824 -10.22638
 Alpha  occ. eigenvalues --  -10.22439  -3.14506  -3.14183  -1.87316  -1.87031
 Alpha  occ. eigenvalues --   -1.86877  -1.86752  -1.86592  -1.86365  -1.12962
 Alpha  occ. eigenvalues --   -1.11162  -1.06286  -1.04818  -1.04072  -1.03288
 Alpha  occ. eigenvalues --   -1.02228  -1.01653  -0.99609  -0.99556  -0.98543
 Alpha  occ. eigenvalues --   -0.98364  -0.98286  -0.97142  -0.97103  -0.96653
 Alpha  occ. eigenvalues --   -0.87914  -0.87526  -0.83703  -0.83064  -0.82993
 Alpha  occ. eigenvalues --   -0.82811  -0.82371  -0.82313  -0.81742  -0.81390
 Alpha  occ. eigenvalues --   -0.81096  -0.80481  -0.80394  -0.79826  -0.78939
 Alpha  occ. eigenvalues --   -0.78704  -0.78246  -0.77945  -0.77353  -0.76849
 Alpha  occ. eigenvalues --   -0.76308  -0.75701  -0.75413  -0.75089  -0.75054
 Alpha  occ. eigenvalues --   -0.74277  -0.72842  -0.72204  -0.71687  -0.71571
 Alpha  occ. eigenvalues --   -0.71541  -0.71292  -0.70560  -0.70494  -0.69768
 Alpha  occ. eigenvalues --   -0.69472  -0.67700  -0.67046  -0.66153  -0.65306
 Alpha  occ. eigenvalues --   -0.63844  -0.63586  -0.63272  -0.62978  -0.62506
 Alpha  occ. eigenvalues --   -0.62333  -0.61359  -0.60592  -0.60039  -0.59676
 Alpha  occ. eigenvalues --   -0.59525  -0.59443  -0.59418  -0.59138  -0.58913
 Alpha  occ. eigenvalues --   -0.58834  -0.57253  -0.56520  -0.55352  -0.54377
 Alpha  occ. eigenvalues --   -0.54287  -0.54154  -0.53914  -0.53723  -0.53258
 Alpha  occ. eigenvalues --   -0.53067  -0.52836  -0.52330  -0.52299  -0.51829
 Alpha  occ. eigenvalues --   -0.51352  -0.50539  -0.50340  -0.50083  -0.49459
 Alpha  occ. eigenvalues --   -0.49368  -0.49354  -0.49158  -0.49149  -0.48662
 Alpha  occ. eigenvalues --   -0.48186  -0.48111  -0.47788  -0.47786  -0.47411
 Alpha  occ. eigenvalues --   -0.47262  -0.47168  -0.46999  -0.46956  -0.46503
 Alpha  occ. eigenvalues --   -0.46390  -0.46260  -0.45963  -0.45890  -0.45702
 Alpha  occ. eigenvalues --   -0.45699  -0.45463  -0.45448  -0.44833  -0.44611
 Alpha  occ. eigenvalues --   -0.44497  -0.44336  -0.44296  -0.44261  -0.43967
 Alpha  occ. eigenvalues --   -0.43938  -0.43805  -0.43741  -0.43441  -0.43377
 Alpha  occ. eigenvalues --   -0.43228  -0.43039  -0.42930  -0.42775  -0.42749
 Alpha  occ. eigenvalues --   -0.42631  -0.42461  -0.42233  -0.41902  -0.41885
 Alpha  occ. eigenvalues --   -0.41520  -0.41208  -0.41115  -0.40978  -0.40818
 Alpha  occ. eigenvalues --   -0.40812  -0.40676  -0.40667  -0.40591  -0.40334
 Alpha  occ. eigenvalues --   -0.40223  -0.40034  -0.39888  -0.39863  -0.39662
 Alpha  occ. eigenvalues --   -0.39575  -0.39520  -0.39478  -0.39189  -0.39137
 Alpha  occ. eigenvalues --   -0.38727  -0.38442  -0.38428  -0.38114  -0.38084
 Alpha  occ. eigenvalues --   -0.38011  -0.37893  -0.37815  -0.37664  -0.37583
 Alpha  occ. eigenvalues --   -0.37499  -0.37453  -0.36999  -0.36974  -0.36799
 Alpha  occ. eigenvalues --   -0.36648  -0.36473  -0.36323  -0.36076  -0.36064
 Alpha  occ. eigenvalues --   -0.35973  -0.35635  -0.35529  -0.35471  -0.35093
 Alpha  occ. eigenvalues --   -0.34632  -0.34493  -0.34306  -0.34250  -0.34172
 Alpha  occ. eigenvalues --   -0.33481  -0.33251  -0.33061  -0.32706  -0.32190
 Alpha  occ. eigenvalues --   -0.32139  -0.32095  -0.31684  -0.31435  -0.31269
 Alpha  occ. eigenvalues --   -0.31141  -0.30622  -0.29773  -0.29409  -0.29051
 Alpha  occ. eigenvalues --   -0.29027  -0.28603  -0.28484  -0.27152  -0.26447
 Alpha  occ. eigenvalues --   -0.26200  -0.25971  -0.25688  -0.25429  -0.25385
 Alpha  occ. eigenvalues --   -0.25348  -0.24709  -0.24665  -0.21178  -0.20681
 Alpha  occ. eigenvalues --   -0.19243  -0.18672
 Alpha virt. eigenvalues --   -0.11935  -0.10946  -0.04974  -0.04363  -0.03904
 Alpha virt. eigenvalues --   -0.03864  -0.02177  -0.01592  -0.00965  -0.00408
 Alpha virt. eigenvalues --    0.00045   0.00969   0.01133   0.01269   0.01549

 Mulliken charges:
               1
     1  Mg  12.000000
     2  C    6.000000
     3  C    6.000000
     4  C    6.000000
     5  C    6.000000
     6  N    7.000000
     7  C    6.000000
     8  C    6.000000
     9  C    6.000000
    10  C    6.000000
    11  C    6.000000
    12  C    6.000000
    13  C    6.000000
    14  H    1.000000
    15  N    7.000000
    16  C    6.000000
    17  C    6.000000
    18  C    6.000000
    19  C    6.000000
    20  C    6.000000
    21  C    6.000000
    22  O    8.000000
    23  C    6.000000
    24  N    7.000000
    25  C    6.000000
    26  C    6.000000
    27  C    6.000000
    28  C    6.000000
    29  C    6.000000
    30  C    6.000000
    31  C    6.000000
    32  N    7.000000
    33  C    6.000000
    34  C    6.000000
    35  C    6.000000
    36  C    6.000000
    37  C    6.000000
    38  C    6.000000
    39  O    8.000000
    40  C    6.000000
    41  C    6.000000
    42  O    8.000000
    43  O    8.000000
    44  C    6.000000
    45  H    1.000000
    46  H    1.000000
    47  H    1.000000
    48  H    1.000000
    49  H    1.000000
    50  H    1.000000
    51  H    1.000000
    52  H    1.000000
    53  H    1.000000
    54  H    1.000000
    55  H    1.000000
    56  H    1.000000
    57  H    1.000000
    58  H    1.000000
    59  H    1.000000
    60  H    1.000000
    61  H    1.000000
    62  H    1.000000
    63  H    1.000000
    64  H    1.000000
    65  H    1.000000
    66  H    1.000000
    67  H    1.000000
    68  H    1.000000
    69  H    1.000000
    70  H    1.000000
    71  H    1.000000
    72  H    1.000000
    73  H    1.000000
    74  H    1.000000
    75  H    1.000000
    76  H    1.000000
    77  H    1.000000
    78  H    1.000000
    79  H    1.000000
    80  Mg  12.000000
    81  C    6.000000
    82  C    6.000000
    83  C    6.000000
    84  C    6.000000
    85  N    7.000000
    86  C    6.000000
    87  C    6.000000
    88  C    6.000000
    89  C    6.000000
    90  C    6.000000
    91  C    6.000000
    92  C    6.000000
    93  H    1.000000
    94  N    7.000000
    95  C    6.000000
    96  C    6.000000
    97  C    6.000000
    98  C    6.000000
    99  C    6.000000
   100  C    6.000000
   101  O    8.000000
   102  C    6.000000
   103  N    7.000000
   104  C    6.000000
   105  C    6.000000
   106  C    6.000000
   107  C    6.000000
   108  C    6.000000
   109  C    6.000000
   110  C    6.000000
   111  N    7.000000
   112  C    6.000000
   113  C    6.000000
   114  C    6.000000
   115  C    6.000000
   116  C    6.000000
   117  C    6.000000
   118  O    8.000000
   119  C    6.000000
   120  C    6.000000
   121  O    8.000000
   122  O    8.000000
   123  C    6.000000
   124  H    1.000000
   125  H    1.000000
   126  H    1.000000
   127  H    1.000000
   128  H    1.000000
   129  H    1.000000
   130  H    1.000000
   131  H    1.000000
   132  H    1.000000
   133  H    1.000000
   134  H    1.000000
   135  H    1.000000
   136  H    1.000000
   137  H    1.000000
   138  H    1.000000
   139  H    1.000000
   140  H    1.000000
   141  H    1.000000
   142  H    1.000000
   143  H    1.000000
   144  H    1.000000
   145  H    1.000000
   146  H    1.000000
   147  H    1.000000
   148  H    1.000000
   149  H    1.000000
   150  H    1.000000
   151  H    1.000000
   152  H    1.000000
   153  H    1.000000
   154  H    1.000000
   155  H    1.000000
   156  H    1.000000
   157  H    1.000000
   158  H    1.000000
 Sum of Mulliken charges = 624.00000

 Dipole moment (field-independent basis, Debye):
    X=              0.0000    Y=              0.0000    Z=             -0.0000  Tot=              0.0000
 Quadrupole moment (field-independent basis, Debye-Ang):
   XX=              0.0000   YY=              0.0000   ZZ=             -0.0000
   XY=             -0.0000   XZ=              0.0000   YZ=              0.0000

 Normal termination of Gaussian 16 at Fri Oct 15 17:32:09 2021.
