 Gaussian 16, Revision A.03,
 Gaussian 16:  ES64L-G16RevA.03 25-Dec-2016

 --------------------------------------------------------
 #p PBE1PBE/Def2SVP td=(nstates=5) density=(transition=1)
 --------------------------------------------------------

 --------------------------------
 TDDFT excited states in gaussian
 --------------------------------
 Symbolic Z-matrix:
 Charge =  0 Multiplicity = 1

                         Standard orientation:
 ---------------------------------------------------------------------
 Center     Atomic      Atomic             Coordinates (Angstroms)
 Number     Number       Type             X           Y           Z
 ---------------------------------------------------------------------
      1         12           0       25.134626    0.556076   -0.355994
      2          6           0       26.115703   -1.916388    1.758222
      3          6           0       23.764521   -1.640140   -2.636899
      4          6           0       24.423966    3.197225   -2.415766
      5          6           0       26.916134    2.915714    1.729484
      6          7           0       25.158032   -1.531896   -0.507905
      7          6           0       25.393198   -2.386439    0.620961
      8          6           0       24.854482   -3.739757    0.380015
      9          6           0       24.502414   -3.664685   -1.173245
     10          6           0       24.462811   -2.191055   -1.511530
     11          6           0       25.567541   -4.435673   -2.102369
     12          6           0       23.742248   -4.187576    1.377496
     13          6           0       23.882125   -5.578696    1.906354
     14          1           0       24.362420   -6.670588    0.870994
     15          7           0       24.153141    0.757087   -2.234518
     16          6           0       23.699778   -0.298695   -2.968107
     17          6           0       23.096455    0.225924   -4.144973
     18          6           0       23.179585    1.672296   -4.096838
     19          6           0       23.895407    1.983347   -2.814377
     20          6           0       22.565556   -0.685333   -5.273145
     21          6           0       22.679870    2.756877   -4.999232
     22          8           0       22.890971    3.972866   -4.929463
     23          6           0       21.722096    2.277176   -6.154646
     24          7           0       25.698260    2.790236   -0.412584
     25          6           0       25.194462    3.619083   -1.292760
     26          6           0       25.405116    5.080949   -0.903905
     27          6           0       26.204427    4.968834    0.425729
     28          6           0       26.304339    3.454661    0.599819
     29          6           0       26.182718    5.942841   -2.023437
     30          6           0       25.366059    5.664170    1.587137
     31          6           0       24.021667    5.065823    2.069948
     32          7           0       26.425145    0.509259    1.306404
     33          6           0       26.998142    1.532450    2.037821
     34          6           0       27.576124    0.907278    3.244836
     35          6           0       27.280209   -0.422748    3.242300
     36          6           0       26.562162   -0.613214    2.006265
     37          6           0       28.473812    1.612921    4.201919
     38          6           0       27.400040   -1.702234    3.940914
     39          8           0       27.947763   -1.996613    4.990092
     40          6           0       26.642610   -2.711232    2.970565
     41          6           0       27.639103   -3.696876    2.504552
     42          8           0       28.717595   -3.479880    1.925124
     43          8           0       27.102059   -4.914537    2.870255
     44          6           0       27.827858   -6.079771    2.348056
     45          1           0       23.273623   -2.297267   -3.357566
     46          1           0       24.062671    4.001944   -3.060481
     47          1           0       27.391774    3.622789    2.411403
     48          1           0       25.705290   -4.401267    0.548067
     49          1           0       23.509122   -4.090760   -1.311122
     50          1           0       26.227100   -5.104021   -1.548842
     51          1           0       26.250078   -3.671170   -2.473291
     52          1           0       24.948860   -4.868640   -2.887323
     53          1           0       22.768121   -4.126573    0.892175
     54          1           0       23.852406   -3.472041    2.192221
     55          1           0       22.938176   -6.002157    2.247231
     56          1           0       24.491455   -5.797731    2.783297
     57          1           0       21.608421   -1.170156   -5.081301
     58          1           0       23.392860   -1.380209   -5.416465
     59          1           0       22.312493   -0.136232   -6.179836
     60          1           0       22.313069    1.761292   -6.911467
     61          1           0       21.098388    3.122196   -6.445672
     62          1           0       20.934143    1.603515   -5.817255
     63          1           0       24.432037    5.527241   -0.700250
     64          1           0       27.181359    5.451046    0.390242
     65          1           0       25.427868    6.581322   -2.483796
     66          1           0       26.597389    5.281924   -2.785269
     67          1           0       26.973133    6.629810   -1.723783
     68          1           0       25.162719    6.724442    1.437761
     69          1           0       26.044686    5.539264    2.431546
     70          1           0       24.247191    4.782609    3.098161
     71          1           0       23.685263    4.233975    1.452379
     72          1           0       23.193918    5.774912    2.061588
     73          1           0       28.241755    1.123868    5.147504
     74          1           0       28.293429    2.687383    4.239895
     75          1           0       29.486407    1.257510    4.015565
     76          1           0       25.979558   -3.183317    3.695065
     77          1           0       27.316493   -6.905623    2.843450
     78          1           0       28.835857   -6.009280    2.756808
     79          1           0       27.933892   -6.126047    1.264017
     80         12           0      -25.032500    0.620429    0.566797
     81          6           0      -24.953881   -1.887097   -2.018726
     82          6           0      -24.744077   -1.788213    2.862675
     83          6           0      -25.994088    2.883493    2.843777
     84          6           0      -25.798879    2.935180   -1.954878
     85          7           0      -24.926229   -1.547255    0.419614
     86          6           0      -24.714178   -2.356754   -0.709383
     87          6           0      -24.318237   -3.825616   -0.296790
     88          6           0      -24.330908   -3.751500    1.260102
     89          6           0      -24.631884   -2.256273    1.546642
     90          6           0      -25.280506   -4.667950    1.989062
     91          6           0      -22.921907   -4.310199   -0.963628
     92          6           0      -22.985916   -5.643906   -1.718133
     93          1           0      -21.992387   -6.735798   -1.172211
     94          7           0      -25.193999    0.586244    2.606072
     95          6           0      -25.048820   -0.486020    3.391159
     96          6           0      -25.276634   -0.157681    4.799488
     97          6           0      -25.737762    1.203522    4.761683
     98          6           0      -25.675420    1.627562    3.359046
     99          6           0      -25.087001   -1.116738    5.895152
    100          6           0      -26.285793    1.968487    6.007199
    101          8           0      -26.608440    3.143456    5.953474
    102          6           0      -26.429957    1.328974    7.351302
    103          7           0      -25.759106    2.557693    0.442296
    104          6           0      -25.971324    3.347493    1.567180
    105          6           0      -26.342839    4.811774    1.162161
    106          6           0      -25.926127    4.868869   -0.354882
    107          6           0      -25.760255    3.378513   -0.651006
    108          6           0      -27.772956    5.329149    1.524787
    109          6           0      -24.610910    5.650014   -0.624505
    110          6           0      -24.526842    6.525672   -1.849198
    111          7           0      -25.374855    0.565465   -1.548539
    112          6           0      -25.672714    1.580968   -2.412250
    113          6           0      -25.617521    1.037806   -3.839400
    114          6           0      -25.291338   -0.292415   -3.730560
    115          6           0      -25.223447   -0.551226   -2.318585
    116          6           0      -25.785825    1.919069   -5.056155
    117          6           0      -25.046190   -1.543615   -4.425471
    118          8           0      -25.065855   -1.669391   -5.667765
    119          6           0      -24.897952   -2.722100   -3.290076
    120          6           0      -26.013664   -3.746176   -3.288541
    121          8           0      -27.206385   -3.391461   -3.208244
    122          8           0      -25.556680   -5.035707   -3.563654
    123          6           0      -26.633752   -5.927880   -3.976574
    124          1           0      -24.545172   -2.505363    3.661530
    125          1           0      -26.232402    3.572349    3.656469
    126          1           0      -25.922170    3.734724   -2.688988
    127          1           0      -25.133798   -4.413491   -0.717477
    128          1           0      -23.369142   -4.169147    1.561050
    129          1           0      -25.901676   -5.263390    1.319824
    130          1           0      -25.960503   -3.923119    2.401109
    131          1           0      -24.778471   -5.359868    2.665981
    132          1           0      -22.251075   -4.353369   -0.106046
    133          1           0      -22.526471   -3.503962   -1.580885
    134          1           0      -22.838323   -5.411091   -2.772699
    135          1           0      -23.985649   -6.066898   -1.611601
    136          1           0      -25.904062   -1.329993    6.583670
    137          1           0      -24.434088   -0.597762    6.595989
    138          1           0      -24.504829   -2.004422    5.646812
    139          1           0      -25.418457    1.033209    7.632250
    140          1           0      -27.000450    0.412436    7.198392
    141          1           0      -26.911123    2.075856    7.981524
    142          1           0      -25.640454    5.419862    1.732287
    143          1           0      -26.733756    5.205515   -1.004459
    144          1           0      -28.193986    4.534787    2.140668
    145          1           0      -28.385033    5.595630    0.663605
    146          1           0      -27.742475    6.156038    2.235392
    147          1           0      -23.947713    4.789057   -0.706080
    148          1           0      -24.252159    6.246178    0.214782
    149          1           0      -24.033326    7.440152   -1.519949
    150          1           0      -25.504046    6.813427   -2.238315
    151          1           0      -23.805192    6.044180   -2.509574
    152          1           0      -25.981366    2.928787   -4.695595
    153          1           0      -26.690864    1.606835   -5.576747
    154          1           0      -24.918685    1.812315   -5.707588
    155          1           0      -23.916293   -3.182347   -3.402447
    156          1           0      -26.609746   -6.235055   -5.021200
    157          1           0      -27.633456   -5.543387   -3.773938
    158          1           0      -26.530473   -6.826066   -3.368269
 ---------------------------------------------------------------------

 SCF Done:  E(RPBE1PBE) =  -4067.36038413     A.U. after   16 cycles

 Excitation energies and oscillator strengths:

 Excited State   1:      Singlet-A      1.8382 eV  674.49 nm  f=0.3619  <S**2>=0.000
     309 -> 315        0.17956
     311 -> 313        0.69175
     311 <- 313       -0.10364
 This state for optimization and/or second-order correction.
 Total Energy, E(TD-HF/TD-DFT) =  -4067.29283147
 Copying the excited state density for this state as the 1-particle RhoCI density.

 Excited State   2:      Singlet-A      1.8518 eV  669.54 nm  f=0.4176  <S**2>=0.000
     310 -> 316       -0.16677
     312 -> 314        0.69618
     312 <- 314       -0.11424

 Excited State   3:      Singlet-A      1.9380 eV  639.74 nm  f=0.0000  <S**2>=0.000
     312 -> 313        0.70711

 Excited State   4:      Singlet-A      2.0343 eV  609.47 nm  f=0.0000  <S**2>=0.000
     311 -> 314        0.70711

 Excited State   5:      Singlet-A      2.2558 eV  549.63 nm  f=0.0515  <S**2>=0.000
     309 -> 313        0.62876
     311 -> 315       -0.31561

 The electronic state is 1-A.
 Alpha  occ. eigenvalues --  -46.92668 -46.91835 -19.27263 -19.26382 -19.20994
 Alpha  occ. eigenvalues --  -19.20580 -19.20061 -19.19966 -19.19575 -19.18900
 Alpha  occ. eigenvalues --  -14.42092 -14.41998 -14.41603 -14.41260 -14.39295
 Alpha  occ. eigenvalues --  -14.39251 -14.39109 -14.39100 -10.37764 -10.36629
 Alpha  occ. eigenvalues --  -10.33578 -10.32739 -10.32692 -10.32219 -10.29664
 Alpha  occ. eigenvalues --  -10.29614 -10.29313 -10.29111 -10.28923 -10.28826
 Alpha  occ. eigenvalues --  -10.28536 -10.28283 -10.28137 -10.28035 -10.27993
 Alpha  occ. eigenvalues --  -10.27947 -10.27635 -10.27634 -10.27466 -10.27402
 Alpha  occ. eigenvalues --  -10.27365 -10.26757 -10.26747 -10.26676 -10.26613
 Alpha  occ. eigenvalues --  -10.26499 -10.26424 -10.26390 -10.26333 -10.26181
 Alpha  occ. eigenvalues --  -10.26103 -10.25905 -10.25798 -10.25775 -10.25600
 Alpha  occ. eigenvalues --  -10.25547 -10.25450 -10.25418 -10.25402 -10.25373
 Alpha  occ. eigenvalues --  -10.25233 -10.25207 -10.25140 -10.25110 -10.24995
 Alpha  occ. eigenvalues --  -10.24899 -10.24757 -10.24659 -10.24645 -10.24248
 Alpha  occ. eigenvalues --  -10.24173 -10.24106 -10.23751 -10.23556 -10.23553
 Alpha  occ. eigenvalues --  -10.23486 -10.23363 -10.23323 -10.23151 -10.23078
 Alpha  occ. eigenvalues --  -10.23031 -10.23013 -10.22970 -10.22963 -10.22868
 Alpha  occ. eigenvalues --  -10.22687  -3.14657  -3.14061  -1.87500  -1.87020
 Alpha  occ. eigenvalues --   -1.86883  -1.86879  -1.86419  -1.86312  -1.11017
 Alpha  occ. eigenvalues --   -1.10799  -1.05119  -1.04985  -1.04181  -1.03670
 Alpha  occ. eigenvalues --   -1.02664  -1.02353  -0.99796  -0.98622  -0.98599
 Alpha  occ. eigenvalues --   -0.98013  -0.97465  -0.97264  -0.96550  -0.96346
 Alpha  occ. eigenvalues --   -0.86903  -0.86852  -0.83461  -0.83431  -0.83127
 Alpha  occ. eigenvalues --   -0.83030  -0.82407  -0.82328  -0.81743  -0.81653
 Alpha  occ. eigenvalues --   -0.81594  -0.81282  -0.80428  -0.80416  -0.78976
 Alpha  occ. eigenvalues --   -0.78599  -0.77939  -0.77708  -0.77001  -0.76714
 Alpha  occ. eigenvalues --   -0.76192  -0.75908  -0.75521  -0.75512  -0.74575
 Alpha  occ. eigenvalues --   -0.74160  -0.72843  -0.72371  -0.71930  -0.71706
 Alpha  occ. eigenvalues --   -0.71503  -0.71231  -0.70503  -0.70181  -0.69339
 Alpha  occ. eigenvalues --   -0.69165  -0.66968  -0.66874  -0.66681  -0.65473
 Alpha  occ. eigenvalues --   -0.64213  -0.63680  -0.63440  -0.62873  -0.62811
 Alpha  occ. eigenvalues --   -0.62212  -0.61862  -0.61215  -0.59843  -0.59774
 Alpha  occ. eigenvalues --   -0.59505  -0.59500  -0.59435  -0.59253  -0.58971
 Alpha  occ. eigenvalues --   -0.58915  -0.57162  -0.57154  -0.54938  -0.54858
 Alpha  occ. eigenvalues --   -0.54299  -0.54027  -0.53528  -0.53412  -0.53312
 Alpha  occ. eigenvalues --   -0.53155  -0.52920  -0.52534  -0.52142  -0.51975
 Alpha  occ. eigenvalues --   -0.50880  -0.50586  -0.50123  -0.49951  -0.49668
 Alpha  occ. eigenvalues --   -0.49557  -0.49479  -0.49342  -0.49060  -0.48396
 Alpha  occ. eigenvalues --   -0.48184  -0.48154  -0.47957  -0.47724  -0.47704
 Alpha  occ. eigenvalues --   -0.47247  -0.47010  -0.46946  -0.46906  -0.46507
 Alpha  occ. eigenvalues --   -0.46454  -0.46343  -0.46245  -0.46221  -0.46068
 Alpha  occ. eigenvalues --   -0.45942  -0.45735  -0.45680  -0.45432  -0.45335
 Alpha  occ. eigenvalues --   -0.44921  -0.44564  -0.44313  -0.44158  -0.43993
 Alpha  occ. eigenvalues --   -0.43970  -0.43880  -0.43505  -0.43422  -0.43319
 Alpha  occ. eigenvalues --   -0.43290  -0.43232  -0.43144  -0.43004  -0.42822
 Alpha  occ. eigenvalues --   -0.42787  -0.42637  -0.42371  -0.42116  -0.42032
 Alpha  occ. eigenvalues --   -0.41930  -0.41720  -0.41633  -0.41538  -0.41368
 Alpha  occ. eigenvalues --   -0.41199  -0.40909  -0.40831  -0.40709  -0.40632
 Alpha  occ. eigenvalues --   -0.40457  -0.40341  -0.40111  -0.39973  -0.39529
 Alpha  occ. eigenvalues --   -0.39339  -0.39331  -0.39123  -0.38912  -0.38880
 Alpha  occ. eigenvalues --   -0.38777  -0.38627  -0.38446  -0.38280  -0.38043
 Alpha  occ. eigenvalues --   -0.37942  -0.37857  -0.37768  -0.37712  -0.37680
 Alpha  occ. eigenvalues --   -0.37635  -0.37484  -0.37123  -0.37092  -0.36915
 Alpha  occ. eigenvalues --   -0.36886  -0.36653  -0.36602  -0.36532  -0.36457
 Alpha  occ. eigenvalues --   -0.36023  -0.35694  -0.35684  -0.35545  -0.35396
 Alpha  occ. eigenvalues --   -0.35100  -0.34760  -0.34506  -0.34448  -0.34084
 Alpha  occ. eigenvalues --   -0.33321  -0.32887  -0.32837  -0.32551  -0.32489
 Alpha  occ. eigenvalues --   -0.32285  -0.32178  -0.31764  -0.31542  -0.31507
 Alpha  occ. eigenvalues --   -0.31407  -0.31161  -0.29841  -0.29662  -0.29661
 Alpha  occ. eigenvalues --   -0.29409  -0.29046  -0.28567  -0.27110  -0.26903
 Alpha  occ. eigenvalues --   -0.26384  -0.26363  -0.25976  -0.25903  -0.25682
 Alpha  occ. eigenvalues --   -0.25631  -0.25464  -0.25459  -0.21326  -0.21087
 Alpha  occ. eigenvalues --   -0.18690  -0.18475
 Alpha virt. eigenvalues --   -0.11092  -0.10955  -0.05820  -0.04870  -0.04478
 Alpha virt. eigenvalues --   -0.04307  -0.02301  -0.02281  -0.01718  -0.00896
 Alpha virt. eigenvalues --   -0.00828   0.00043   0.00338   0.00775   0.01015

 Mulliken charges:
               1
     1  Mg  12.003029
     2  C    6.019960
     3  C    5.980660
     4  C    5.996773
     5  C    6.016322
     6  N    7.001890
     7  C    5.964732
     8  C    6.011857
     9  C    5.989914
    10  C    6.034771
    11  C    5.999041
    12  C    6.002446
    13  C    6.003942
    14  H    0.991675
    15  N    6.992688
    16  C    6.035680
    17  C    6.021525
    18  C    6.016640
    19  C    6.024097
    20  C    5.999901
    21  C    6.012069
    22  O    8.030335
    23  C    5.995681
    24  N    7.003218
    25  C    6.025265
    26  C    5.991113
    27  C    6.010525
    28  C    5.967667
    29  C    5.998935
    30  C    6.002205
    31  C    6.004255
    32  N    7.002100
    33  C    5.957650
    34  C    5.973439
    35  C    5.997033
    36  C    5.969554
    37  C    6.001338
    38  C    5.982345
    39  O    7.973478
    40  C    5.998043
    41  C    5.996710
    42  O    7.995905
    43  O    7.998211
    44  C    6.001468
    45  H    1.007363
    46  H    1.006837
    47  H    0.991890
    48  H    0.998872
    49  H    1.000765
    50  H    1.013591
    51  H    1.000248
    52  H    0.998982
    53  H    0.988048
    54  H    1.005033
    55  H    0.996440
    56  H    1.003222
    57  H    1.019377
    58  H    1.014306
    59  H    1.012424
    60  H    1.008664
    61  H    1.013709
    62  H    1.007673
    63  H    1.000105
    64  H    0.997721
    65  H    0.997863
    66  H    0.996936
    67  H    1.008944
    68  H    0.990753
    69  H    1.004421
    70  H    1.005400
    71  H    0.991595
    72  H    0.993487
    73  H    0.985648
    74  H    0.982434
    75  H    0.980799
    76  H    0.992698
    77  H    0.995697
    78  H    0.998651
    79  H    0.993319
    80  Mg  12.000027
    81  C    6.000394
    82  C    5.999720
    83  C    5.999736
    84  C    6.000301
    85  N    7.000114
    86  C    5.999358
    87  C    6.000153
    88  C    5.999805
    89  C    6.000546
    90  C    5.999976
    91  C    6.000077
    92  C    6.000058
    93  H    0.999816
    94  N    6.999945
    95  C    6.000630
    96  C    6.000443
    97  C    6.000165
    98  C    6.000667
    99  C    5.999840
   100  C    6.000213
   101  O    8.000419
   102  C    5.999968
   103  N    7.000009
   104  C    6.000516
   105  C    5.999879
   106  C    6.000132
   107  C    5.999497
   108  C    6.000027
   109  C    6.000031
   110  C    6.000044
   111  N    6.999935
   112  C    5.999354
   113  C    5.999428
   114  C    5.999969
   115  C    5.999460
   116  C    6.000101
   117  C    5.999643
   118  O    7.999479
   119  C    5.999932
   120  C    5.999907
   121  O    7.999940
   122  O    7.999936
   123  C    6.000054
   124  H    1.000162
   125  H    1.000159
   126  H    0.999835
   127  H    1.000000
   128  H    1.000091
   129  H    1.000216
   130  H    0.999902
   131  H    1.000054
   132  H    0.999814
   133  H    1.000055
   134  H    1.000047
   135  H    0.999987
   136  H    1.000419
   137  H    1.000345
   138  H    1.000316
   139  H    1.000097
   140  H    1.000097
   141  H    1.000262
   142  H    1.000000
   143  H    1.000028
   144  H    0.999920
   145  H    1.000193
   146  H    1.000035
   147  H    0.999997
   148  H    0.999802
   149  H    0.999907
   150  H    0.999992
   151  H    1.000039
   152  H    0.999674
   153  H    0.999658
   154  H    0.999643
   155  H    0.999822
   156  H    0.999936
   157  H    0.999955
   158  H    0.999891
 Sum of Mulliken charges = 624.00000

 Dipole moment (field-independent basis, Debye):
    X=             -5.0074    Y=              1.2894    Z=             -8.7800  Tot=             10.1894
 Quadrupole moment (field-independent basis, Debye-Ang):
   XX=           -252.6917   YY=             -1.2550   ZZ=              9.7964
   XY=             28.5301   XZ=           -228.7254   YZ=             -5.6470

 Normal termination of Gaussian 16 at Wed Oct 13 22:06:21 2021.
