 Gaussian 16, Revision A.03,
 Gaussian 16:  ES64L-G16RevA.03 25-Dec-2016

 --------------------------------------------------------
 #p PBE1PBE/Def2SVP td=(nstates=5) density=(transition=1)
 --------------------------------------------------------

 --------------------------------
 TDDFT excited states in gaussian
 --------------------------------
 Symbolic Z-matrix:
 Charge =  0 Multiplicity = 1

                         Standard orientation:
 ---------------------------------------------------------------------
 Center     Atomic      Atomic             Coordinates (Angstroms)
 Number     Number       Type             X           Y           Z
 ---------------------------------------------------------------------
      1         12           0       -0.654784    0.128745    0.128102
      2          6           0        2.716215    0.408414    0.250024
      3          6           0       -0.363808   -3.330663    0.015951
      4          6           0       -4.026299   -0.150401   -0.000102
      5          6           0       -0.926987    3.558379   -0.254725
      6          7           0        0.973410   -1.201313    0.244226
      7          6           0        2.298192   -0.907747    0.256870
      8          6           0        3.154398   -2.122097    0.505194
      9          6           0        2.191196   -3.318410    0.152224
     10          6           0        0.821692   -2.563412    0.166174
     11          6           0        2.456137   -4.208337   -1.133309
     12          6           0        3.612768   -2.221177    2.029608
     13          6           0        4.917424   -3.052537    2.207225
     14          1           0        5.314054   -4.162588    1.219492
     15          7           0       -2.059106   -1.508671   -0.059323
     16          6           0       -1.684498   -2.877851   -0.073839
     17          6           0       -2.859821   -3.692411   -0.147340
     18          6           0       -3.970956   -2.776021   -0.171034
     19          6           0       -3.341741   -1.411801   -0.057467
     20          6           0       -2.864962   -5.180257   -0.102412
     21          6           0       -5.464648   -3.070475   -0.252042
     22          8           0       -6.381242   -2.207311   -0.384648
     23          6           0       -5.943863   -4.511008   -0.193571
     24          7           0       -2.243169    1.482131   -0.162542
     25          6           0       -3.588916    1.155488    0.011938
     26          6           0       -4.533452    2.377379    0.201947
     27          6           0       -3.417735    3.565110    0.154533
     28          6           0       -2.124939    2.869765   -0.068785
     29          6           0       -5.546728    2.410874   -0.949397
     30          6           0       -3.435089    4.478086    1.344953
     31          6           0       -3.605077    5.926777    0.986684
     32          7           0        0.514253    1.681974   -0.098207
     33          6           0        0.318630    3.052164   -0.218955
     34          6           0        1.565674    3.719442   -0.286532
     35          6           0        2.583784    2.737459   -0.153070
     36          6           0        1.908005    1.518692    0.067077
     37          6           0        1.843908    5.167533   -0.418946
     38          6           0        4.008588    2.496765   -0.219668
     39          8           0        4.987949    3.182941   -0.437551
     40          6           0        4.110211    0.935604    0.125265
     41          6           0        5.136830    0.240467   -0.694511
     42          8           0        5.325683    0.375015   -1.876477
     43          8           0        5.921945   -0.579712    0.021107
     44          6           0        6.951380   -1.301410   -0.779786
     45          1           0       -0.155697   -4.382997   -0.188964
     46          1           0       -5.098993   -0.254990   -0.175243
     47          1           0       -0.927225    4.650299   -0.259044
     48          1           0        3.967000   -2.213062   -0.215376
     49          1           0        2.146402   -3.984747    1.013072
     50          1           0        3.405211   -3.883716   -1.560061
     51          1           0        1.697517   -4.207075   -1.914388
     52          1           0        2.487729   -5.242841   -0.790870
     53          1           0        2.751234   -2.652957    2.539249
     54          1           0        3.778994   -1.203053    2.381806
     55          1           0        4.785606   -3.475010    3.203506
     56          1           0        5.722379   -2.328288    2.329351
     57          1           0       -2.798697   -5.625440    0.890372
     58          1           0       -2.036532   -5.488556   -0.738953
     59          1           0       -3.683227   -5.623718   -0.668984
     60          1           0       -5.852317   -4.896008   -1.209083
     61          1           0       -6.998181   -4.442868    0.073389
     62          1           0       -5.366253   -5.144865    0.479486
     63          1           0       -5.076757    2.194367    1.129077
     64          1           0       -3.622728    4.194446   -0.712159
     65          1           0       -5.369753    1.704367   -1.760609
     66          1           0       -5.670953    3.442088   -1.279100
     67          1           0       -6.490472    2.071999   -0.521089
     68          1           0       -2.503912    4.464180    1.911512
     69          1           0       -4.196202    4.242022    2.088755
     70          1           0       -4.375939    6.425380    1.573582
     71          1           0       -3.880917    6.047148   -0.060608
     72          1           0       -2.600093    6.340625    1.074444
     73          1           0        1.108748    5.747611   -0.977548
     74          1           0        2.665406    5.195966   -1.135370
     75          1           0        2.030495    5.602561    0.562967
     76          1           0        4.521858    1.056225    1.127734
     77          1           0        7.798624   -0.661661   -1.030826
     78          1           0        6.512583   -1.831294   -1.625398
     79          1           0        7.362937   -2.099109   -0.160916
 ---------------------------------------------------------------------

 SCF Done:  E(RPBE1PBE) =  -2033.69055851     A.U. after   15 cycles

 Excitation energies and oscillator strengths:

 Excited State   1:      Singlet-A      1.8023 eV  687.94 nm  f=0.3701  <S**2>=0.000
     155 ->158        -0.16351
     156 ->157         0.69745
     156 <-157        -0.11963
 This state for optimization and/or second-order correction.
 Total Energy, E(TD-HF/TD-DFT) =  -2033.62432659
 Copying the excited state density for this state as the 1-particle RhoCI density.

 Excited State   2:      Singlet-A      2.2177 eV  559.08 nm  f=0.1187  <S**2>=0.000
     155 ->157         0.65153
     156 ->158         0.25905

 Excited State   3:      Singlet-A      2.9136 eV  425.53 nm  f=0.0009  <S**2>=0.000
     152 ->157        -0.10445
     153 ->157         0.53570
     153 ->159         0.16257
     154 ->157         0.39626

 Excited State   4:      Singlet-A      2.9642 eV  418.27 nm  f=0.0053  <S**2>=0.000
     151 ->157         0.16237
     152 ->157         0.18125
     153 ->157        -0.35585
     154 ->157         0.52945

 Excited State   5:      Singlet-A      3.0249 eV  409.87 nm  f=0.0081  <S**2>=0.000
     151 ->157         0.31478
     152 ->157         0.53316
     153 ->157         0.20334
     154 ->157        -0.19162

 The electronic state is 1-A.
 Alpha  occ. eigenvalues --  -46.90567 -19.25780 -19.19437 -19.18980 -19.18726
 Alpha  occ. eigenvalues --  -14.42291 -14.41302 -14.39136 -14.38497 -10.35582
 Alpha  occ. eigenvalues --  -10.32340 -10.32268 -10.29279 -10.29119 -10.28672
 Alpha  occ. eigenvalues --  -10.28460 -10.28247 -10.27733 -10.27561 -10.26872
 Alpha  occ. eigenvalues --  -10.26681 -10.26519 -10.26328 -10.26086 -10.26008
 Alpha  occ. eigenvalues --  -10.25869 -10.25490 -10.25485 -10.25466 -10.25366
 Alpha  occ. eigenvalues --  -10.25359 -10.25220 -10.25075 -10.24570 -10.24308
 Alpha  occ. eigenvalues --  -10.23651 -10.23274 -10.23229 -10.23107 -10.23006
 Alpha  occ. eigenvalues --  -10.22997 -10.22988 -10.22566  -3.12996  -1.85831
 Alpha  occ. eigenvalues --   -1.85351  -1.85267  -1.12082  -1.04877  -1.02089
 Alpha  occ. eigenvalues --   -1.02080  -0.99101  -0.98237  -0.97351  -0.96048
 Alpha  occ. eigenvalues --   -0.87733  -0.84021  -0.83102  -0.82835  -0.82025
 Alpha  occ. eigenvalues --   -0.81531  -0.80716  -0.78660  -0.78081  -0.76759
 Alpha  occ. eigenvalues --   -0.75886  -0.75392  -0.74756  -0.72606  -0.72111
 Alpha  occ. eigenvalues --   -0.71645  -0.70842  -0.69592  -0.67341  -0.66295
 Alpha  occ. eigenvalues --   -0.63505  -0.63054  -0.62578  -0.61111  -0.60277
 Alpha  occ. eigenvalues --   -0.59792  -0.59321  -0.58678  -0.56900  -0.54879
 Alpha  occ. eigenvalues --   -0.54445  -0.53546  -0.53001  -0.52539  -0.52313
 Alpha  occ. eigenvalues --   -0.50684  -0.49871  -0.49744  -0.49582  -0.48519
 Alpha  occ. eigenvalues --   -0.47963  -0.47610  -0.47477  -0.47095  -0.46897
 Alpha  occ. eigenvalues --   -0.46673  -0.46605  -0.45893  -0.45742  -0.44983
 Alpha  occ. eigenvalues --   -0.44651  -0.44426  -0.44240  -0.43586  -0.43467
 Alpha  occ. eigenvalues --   -0.43078  -0.42851  -0.42692  -0.42377  -0.42003
 Alpha  occ. eigenvalues --   -0.41832  -0.41398  -0.41336  -0.41050  -0.40679
 Alpha  occ. eigenvalues --   -0.39983  -0.39740  -0.39560  -0.39361  -0.38864
 Alpha  occ. eigenvalues --   -0.38707  -0.38399  -0.38117  -0.37995  -0.37240
 Alpha  occ. eigenvalues --   -0.37145  -0.36804  -0.36780  -0.36274  -0.35915
 Alpha  occ. eigenvalues --   -0.35740  -0.35338  -0.35290  -0.35267  -0.34965
 Alpha  occ. eigenvalues --   -0.33239  -0.32988  -0.32653  -0.32240  -0.32051
 Alpha  occ. eigenvalues --   -0.31599  -0.29829  -0.29400  -0.28425  -0.27002
 Alpha  occ. eigenvalues --   -0.25943  -0.25525  -0.25437  -0.25197  -0.21199
 Alpha  occ. eigenvalues --   -0.18705
 Alpha virt. eigenvalues --   -0.11406  -0.05135  -0.04090  -0.02137   0.00111
 Alpha virt. eigenvalues --    0.00840   0.01193   0.01247   0.03380   0.04315
 Alpha virt. eigenvalues --    0.04599   0.05289   0.05988   0.06237   0.06507

 Mulliken charges:
               1
     1  Mg  12.004137
     2  C    5.978444
     3  C    5.999516
     4  C    6.030786
     5  C    6.015731
     6  N    6.985434
     7  C    6.032127
     8  C    5.988133
     9  C    6.009664
    10  C    5.968190
    11  C    6.004381
    12  C    5.997401
    13  C    5.999826
    14  H    1.005907
    15  N    7.003311
    16  C    5.961978
    17  C    5.986547
    18  C    5.979241
    19  C    5.969934
    20  C    6.003501
    21  C    5.986088
    22  O    7.962521
    23  C    6.004758
    24  N    7.019839
    25  C    5.966997
    26  C    6.009428
    27  C    5.988440
    28  C    6.018236
    29  C    5.999835
    30  C    5.993640
    31  C    5.999747
    32  N    6.997339
    33  C    6.019640
    34  C    6.034903
    35  C    6.000405
    36  C    6.029434
    37  C    5.996971
    38  C    6.013909
    39  O    8.023505
    40  C    6.003586
    41  C    6.003051
    42  O    8.002250
    43  O    8.001975
    44  C    5.998568
    45  H    0.985356
    46  H    1.001462
    47  H    1.014747
    48  H    0.999219
    49  H    0.996576
    50  H    0.985110
    51  H    1.000605
    52  H    0.996795
    53  H    1.011122
    54  H    0.992761
    55  H    1.002295
    56  H    0.995694
    57  H    0.981713
    58  H    0.987202
    59  H    0.986268
    60  H    0.990056
    61  H    0.985635
    62  H    0.993085
    63  H    1.003686
    64  H    1.004101
    65  H    1.004995
    66  H    0.992529
    67  H    1.005143
    68  H    0.998214
    69  H    1.012447
    70  H    1.007155
    71  H    1.003913
    72  H    0.995973
    73  H    1.016638
    74  H    1.015396
    75  H    1.021228
    76  H    1.003443
    77  H    1.000413
    78  H    1.005024
    79  H    1.004751
 Sum of Mulliken charges = 312.00000

 Dipole moment (field-independent basis, Debye):
    X=              5.4625    Y=              8.8578    Z=              0.0101  Tot=             10.4067
 Quadrupole moment (field-independent basis, Debye-Ang):
   XX=             -8.6134   YY=              1.1149   ZZ=              0.3939
   XY=             -9.4982   XZ=             -1.8314   YZ=             -1.6728

 Normal termination of Gaussian 16 at Wed Oct 13 19:45:30 2021.
