 Gaussian 16, Revision A.03,
 Gaussian 16:  ES64L-G16RevA.03 25-Dec-2016

 --------------------------------------------------------
 #p PBE1PBE/Def2SVP td=(nstates=5) density=(transition=1)
 --------------------------------------------------------

 --------------------------------
 TDDFT excited states in gaussian
 --------------------------------
 Symbolic Z-matrix:
 Charge =  0 Multiplicity = 1

                         Standard orientation:
 ---------------------------------------------------------------------
 Center     Atomic      Atomic             Coordinates (Angstroms)
 Number     Number       Type             X           Y           Z
 ---------------------------------------------------------------------
      1         12           0      -11.178099   -0.091372    0.021245
      2          6           0       -8.068961   -1.007237    1.269243
      3          6           0      -10.352230    3.296291    0.653885
      4          6           0      -13.533022    0.891686   -2.135624
      5          6           0      -11.538792   -3.395906   -1.152903
      6          7           0       -9.197606    1.061112    0.570356
      7          6           0       -8.209159    0.404627    1.263417
      8          6           0       -7.217661    1.362737    1.845251
      9          6           0       -8.064718    2.716872    1.879833
     10          6           0       -9.290950    2.392940    0.955059
     11          6           0       -8.521454    3.225977    3.338901
     12          6           0       -5.841802    1.341444    1.000265
     13          6           0       -4.667715    1.732249    1.745253
     14          1           0       -3.883982    2.894532    1.099523
     15          7           0      -11.980238    1.789612   -0.521312
     16          6           0      -11.501181    3.075764   -0.145361
     17          6           0      -12.396701    4.062373   -0.725305
     18          6           0      -13.354202    3.398630   -1.530303
     19          6           0      -13.034130    1.942212   -1.353907
     20          6           0      -12.156266    5.519604   -0.588269
     21          6           0      -14.440548    4.136714   -2.419359
     22          8           0      -14.449105    5.366090   -2.379986
     23          6           0      -15.619048    3.393559   -3.038983
     24          7           0      -12.256865   -1.123245   -1.476128
     25          6           0      -13.254565   -0.474007   -2.128007
     26          6           0      -14.008298   -1.423806   -3.251037
     27          6           0      -13.501172   -2.866277   -2.767617
     28          6           0      -12.390904   -2.508130   -1.729731
     29          6           0      -15.582683   -1.361464   -3.258170
     30          6           0      -12.947133   -3.722147   -3.908211
     31          6           0      -13.561187   -5.105002   -4.232993
     32          7           0      -10.199789   -1.889997    0.289010
     33          6           0      -10.482940   -3.128046   -0.210443
     34          6           0       -9.573547   -4.083862    0.358999
     35          6           0       -8.550781   -3.229809    0.919735
     36          6           0       -8.995056   -1.902489    0.794148
     37          6           0       -9.562893   -5.564672    0.111332
     38          6           0       -7.224769   -3.243495    1.501398
     39          8           0       -6.575205   -4.157912    1.909194
     40          6           0       -6.822156   -1.754698    1.837049
     41          6           0       -6.677982   -1.448671    3.344163
     42          8           0       -7.503505   -1.729530    4.186300
     43          8           0       -5.406913   -0.891255    3.593625
     44          6           0       -5.041121   -0.707907    4.965684
     45          1           0      -10.070550    4.311329    0.938923
     46          1           0      -14.129071    1.164598   -3.008755
     47          1           0      -11.702138   -4.409675   -1.523103
     48          1           0       -7.069211    1.208731    2.914558
     49          1           0       -7.465907    3.499560    1.412684
     50          1           0       -8.070590    4.212131    3.449172
     51          1           0       -8.208357    2.556181    4.139206
     52          1           0       -9.607487    3.316305    3.302673
     53          1           0       -6.020558    2.075256    0.214526
     54          1           0       -5.876845    0.338102    0.574933
     55          1           0       -4.038204    0.844941    1.800604
     56          1           0       -4.953825    2.085035    2.736065
     57          1           0      -11.414687    5.734356    0.180970
     58          1           0      -13.060090    6.013371   -0.230468
     59          1           0      -11.787973    5.949699   -1.519950
     60          1           0      -15.331824    2.682652   -3.814359
     61          1           0      -16.302644    4.143036   -3.439183
     62          1           0      -16.141235    2.884773   -2.228621
     63          1           0      -13.519187   -1.140098   -4.182504
     64          1           0      -14.216076   -3.426219   -2.164332
     65          1           0      -15.927906   -0.904328   -4.185048
     66          1           0      -15.925619   -0.756496   -2.417964
     67          1           0      -15.934666   -2.390597   -3.179124
     68          1           0      -11.865930   -3.837338   -3.835289
     69          1           0      -12.929699   -3.229368   -4.880172
     70          1           0      -12.958840   -5.987371   -4.015177
     71          1           0      -13.688030   -5.105835   -5.315856
     72          1           0      -14.512702   -5.245901   -3.718877
     73          1           0       -8.971986   -6.015554    0.908983
     74          1           0       -8.910676   -5.893455   -0.697139
     75          1           0      -10.543535   -6.013811   -0.043654
     76          1           0       -5.841370   -1.659278    1.370314
     77          1           0       -4.343910    0.124833    4.867736
     78          1           0       -4.424706   -1.526248    5.337361
     79          1           0       -5.923584   -0.567398    5.588594
     80         12           0       10.787034    0.025550   -0.657667
     81          6           0        8.166773    0.724225    1.616673
     82          6           0       10.662063   -3.196841    0.337240
     83          6           0       13.302782   -0.534040   -2.676621
     84          6           0       11.223043    3.570712   -0.988682
     85          7           0        9.608900   -1.136629    0.912441
     86          6           0        8.449647   -0.652476    1.495107
     87          6           0        7.729245   -1.826939    2.063851
     88          6           0        8.783731   -2.931472    2.140557
     89          6           0        9.768612   -2.444660    1.048254
     90          6           0        9.482800   -2.945039    3.551523
     91          6           0        6.401632   -2.322538    1.273653
     92          6           0        5.120258   -2.734516    2.061187
     93          1           0        5.312235   -3.735188    3.237308
     94          7           0       11.839231   -1.680761   -1.080083
     95          6           0       11.618353   -2.864283   -0.588589
     96          6           0       12.621728   -3.789087   -1.143806
     97          6           0       13.289418   -3.102505   -2.202835
     98          6           0       12.843195   -1.693582   -2.009262
     99          6           0       12.918198   -5.277972   -0.735476
    100          6           0       14.251507   -3.591916   -3.284836
    101          8           0       14.852743   -2.843721   -4.079114
    102          6           0       14.656573   -4.989090   -3.267987
    103          7           0       12.206164    1.410041   -1.565900
    104          6           0       13.116277    0.884511   -2.479295
    105          6           0       13.769815    2.070559   -3.288262
    106          6           0       12.973200    3.309465   -2.808583
    107          6           0       12.036532    2.737751   -1.741954
    108          6           0       15.291938    2.119084   -3.152769
    109          6           0       12.294829    4.156733   -3.914372
    110          6           0       12.316770    5.695242   -3.758599
    111          7           0        9.928166    1.809213    0.129241
    112          6           0       10.230330    3.155684   -0.047983
    113          6           0        9.218799    3.942673    0.610358
    114          6           0        8.430413    3.033754    1.317648
    115          6           0        8.873328    1.720294    0.999413
    116          6           0        9.048563    5.334122    0.538510
    117          6           0        7.258013    2.877351    2.191154
    118          8           0        6.469352    3.675853    2.671558
    119          6           0        7.031505    1.343673    2.395872
    120          6           0        7.050657    1.080641    3.891093
    121          8           0        7.938813    0.898417    4.692704
    122          8           0        5.718848    0.977828    4.171939
    123          6           0        5.332365    0.386135    5.475018
    124          1           0       10.575068   -4.257506    0.583499
    125          1           0       13.991389   -0.789117   -3.484756
    126          1           0       11.195882    4.630212   -1.249938
    127          1           0        7.328983   -1.701069    3.070165
    128          1           0        8.414351   -3.891803    1.781628
    129          1           0        9.791614   -3.936195    3.881986
    130          1           0        8.818369   -2.649045    4.363693
    131          1           0       10.379584   -2.339693    3.423983
    132          1           0        6.678077   -3.093111    0.554756
    133          1           0        6.069090   -1.537242    0.593795
    134          1           0        4.556195   -3.283752    1.306474
    135          1           0        4.725564   -1.763100    2.359055
    136          1           0       12.648048   -6.028513   -1.477968
    137          1           0       12.365159   -5.468851    0.184634
    138          1           0       13.972663   -5.524310   -0.610608
    139          1           0       13.787280   -5.647078   -3.281341
    140          1           0       15.264436   -5.205586   -2.389413
    141          1           0       15.125579   -5.191484   -4.230388
    142          1           0       13.459662    1.930915   -4.323941
    143          1           0       13.596971    3.946457   -2.181784
    144          1           0       15.553086    2.734531   -2.291251
    145          1           0       15.805773    2.604890   -3.981655
    146          1           0       15.649774    1.141672   -2.830850
    147          1           0       11.275481    3.849082   -4.147057
    148          1           0       12.746013    3.959050   -4.887645
    149          1           0       11.342097    5.931403   -3.331334
    150          1           0       12.338071    6.075494   -4.780405
    151          1           0       13.144046    5.996679   -3.116649
    152          1           0        8.512223    5.859747    1.328224
    153          1           0        8.606797    5.543997   -0.436112
    154          1           0       10.055327    5.747911    0.583214
    155          1           0        6.080977    1.044771    1.954380
    156          1           0        4.511259   -0.289052    5.235885
    157          1           0        4.971612    1.081791    6.232235
    158          1           0        6.158688   -0.199306    5.877338
 ---------------------------------------------------------------------

 SCF Done:  E(RPBE1PBE) =  -4067.34281061     A.U. after   16 cycles

 Excitation energies and oscillator strengths:

 Excited State   1:      Singlet-A      1.8228 eV  680.18 nm  f=0.0000  <S**2>=0.000
     312 -> 313        0.70709
 This state for optimization and/or second-order correction.
 Total Energy, E(TD-HF/TD-DFT) =  -4067.27582358
 Copying the excited state density for this state as the 1-particle RhoCI density.

 Excited State   2:      Singlet-A      1.8321 eV  676.73 nm  f=0.3829  <S**2>=0.000
     309 -> 316       -0.16908
     311 -> 313        0.69535
     311 <- 313       -0.11106

 Excited State   3:      Singlet-A      1.8845 eV  657.90 nm  f=0.3732  <S**2>=0.000
     310 -> 315       -0.17638
     312 -> 314        0.68856

 Excited State   4:      Singlet-A      2.0164 eV  614.88 nm  f=0.0000  <S**2>=0.000
     311 -> 314        0.70709

 Excited State   5:      Singlet-A      2.2474 eV  551.68 nm  f=0.1058  <S**2>=0.000
     309 -> 313        0.64661
     311 -> 316        0.27068

 The electronic state is 1-A.
 Alpha  occ. eigenvalues --  -46.93196 -46.92708 -19.25831 -19.25034 -19.20982
 Alpha  occ. eigenvalues --  -19.20227 -19.19742 -19.19379 -19.18895 -19.18654
 Alpha  occ. eigenvalues --  -14.41711 -14.41661 -14.41273 -14.40884 -14.39752
 Alpha  occ. eigenvalues --  -14.39394 -14.38844 -14.38633 -10.37160 -10.36217
 Alpha  occ. eigenvalues --  -10.33403 -10.32530 -10.31966 -10.31326 -10.29416
 Alpha  occ. eigenvalues --  -10.29399 -10.29196 -10.28710 -10.28670 -10.28552
 Alpha  occ. eigenvalues --  -10.28532 -10.28466 -10.28427 -10.28413 -10.28357
 Alpha  occ. eigenvalues --  -10.28079 -10.27671 -10.27666 -10.27518 -10.27314
 Alpha  occ. eigenvalues --  -10.27287 -10.27112 -10.27038 -10.26571 -10.26254
 Alpha  occ. eigenvalues --  -10.26239 -10.26042 -10.25978 -10.25903 -10.25871
 Alpha  occ. eigenvalues --  -10.25697 -10.25670 -10.25597 -10.25589 -10.25521
 Alpha  occ. eigenvalues --  -10.25476 -10.25347 -10.25326 -10.25323 -10.25287
 Alpha  occ. eigenvalues --  -10.25219 -10.25139 -10.25010 -10.24926 -10.24842
 Alpha  occ. eigenvalues --  -10.24338 -10.24313 -10.24236 -10.24222 -10.24184
 Alpha  occ. eigenvalues --  -10.24156 -10.24132 -10.24109 -10.24004 -10.23891
 Alpha  occ. eigenvalues --  -10.23738 -10.23368 -10.23367 -10.23247 -10.23233
 Alpha  occ. eigenvalues --  -10.23138 -10.23062 -10.22696 -10.22678 -10.22630
 Alpha  occ. eigenvalues --  -10.22547  -3.15196  -3.14680  -1.87983  -1.87625
 Alpha  occ. eigenvalues --   -1.87517  -1.87385  -1.87055  -1.86893  -1.10873
 Alpha  occ. eigenvalues --   -1.10865  -1.05741  -1.04867  -1.04327  -1.03968
 Alpha  occ. eigenvalues --   -1.03605  -1.02577  -0.99827  -0.99750  -0.98519
 Alpha  occ. eigenvalues --   -0.97658  -0.97406  -0.96947  -0.96719  -0.96185
 Alpha  occ. eigenvalues --   -0.87117  -0.86700  -0.83538  -0.83150  -0.82735
 Alpha  occ. eigenvalues --   -0.82600  -0.82426  -0.82259  -0.81868  -0.81299
 Alpha  occ. eigenvalues --   -0.81187  -0.81134  -0.80816  -0.80089  -0.78472
 Alpha  occ. eigenvalues --   -0.78306  -0.77861  -0.77689  -0.76923  -0.76908
 Alpha  occ. eigenvalues --   -0.76545  -0.76373  -0.75810  -0.75494  -0.74942
 Alpha  occ. eigenvalues --   -0.74634  -0.72621  -0.72238  -0.71721  -0.71587
 Alpha  occ. eigenvalues --   -0.71303  -0.71017  -0.70501  -0.70137  -0.69429
 Alpha  occ. eigenvalues --   -0.69273  -0.67160  -0.66955  -0.66236  -0.65786
 Alpha  occ. eigenvalues --   -0.63633  -0.63186  -0.63086  -0.62942  -0.62155
 Alpha  occ. eigenvalues --   -0.61851  -0.61666  -0.60834  -0.60327  -0.59942
 Alpha  occ. eigenvalues --   -0.59809  -0.59387  -0.59347  -0.58874  -0.58865
 Alpha  occ. eigenvalues --   -0.58708  -0.57436  -0.56505  -0.54954  -0.54238
 Alpha  occ. eigenvalues --   -0.54094  -0.54086  -0.53790  -0.53554  -0.53073
 Alpha  occ. eigenvalues --   -0.52915  -0.52636  -0.52363  -0.52051  -0.52046
 Alpha  occ. eigenvalues --   -0.50850  -0.50716  -0.50403  -0.49968  -0.49702
 Alpha  occ. eigenvalues --   -0.49575  -0.49273  -0.48991  -0.48624  -0.48246
 Alpha  occ. eigenvalues --   -0.48092  -0.47857  -0.47761  -0.47586  -0.47359
 Alpha  occ. eigenvalues --   -0.47355  -0.47125  -0.46955  -0.46955  -0.46628
 Alpha  occ. eigenvalues --   -0.46592  -0.46316  -0.46230  -0.46191  -0.46105
 Alpha  occ. eigenvalues --   -0.45855  -0.45673  -0.45485  -0.45365  -0.44932
 Alpha  occ. eigenvalues --   -0.44791  -0.44577  -0.44491  -0.44279  -0.44184
 Alpha  occ. eigenvalues --   -0.44109  -0.43913  -0.43906  -0.43844  -0.43520
 Alpha  occ. eigenvalues --   -0.43430  -0.43383  -0.43131  -0.42836  -0.42701
 Alpha  occ. eigenvalues --   -0.42544  -0.42323  -0.42066  -0.42045  -0.41767
 Alpha  occ. eigenvalues --   -0.41683  -0.41576  -0.41421  -0.41326  -0.41151
 Alpha  occ. eigenvalues --   -0.40970  -0.40863  -0.40622  -0.40601  -0.40408
 Alpha  occ. eigenvalues --   -0.40282  -0.39959  -0.39753  -0.39733  -0.39613
 Alpha  occ. eigenvalues --   -0.39566  -0.39456  -0.39356  -0.39150  -0.38850
 Alpha  occ. eigenvalues --   -0.38760  -0.38675  -0.38610  -0.38466  -0.38340
 Alpha  occ. eigenvalues --   -0.38242  -0.37927  -0.37794  -0.37750  -0.37579
 Alpha  occ. eigenvalues --   -0.37504  -0.37468  -0.37325  -0.37128  -0.37056
 Alpha  occ. eigenvalues --   -0.36978  -0.36642  -0.36394  -0.36349  -0.36114
 Alpha  occ. eigenvalues --   -0.35968  -0.35879  -0.35728  -0.35380  -0.35335
 Alpha  occ. eigenvalues --   -0.35064  -0.34793  -0.34670  -0.34576  -0.33673
 Alpha  occ. eigenvalues --   -0.33620  -0.33148  -0.32751  -0.32621  -0.32351
 Alpha  occ. eigenvalues --   -0.32084  -0.31641  -0.31573  -0.31365  -0.31254
 Alpha  occ. eigenvalues --   -0.30916  -0.30680  -0.29787  -0.29560  -0.29420
 Alpha  occ. eigenvalues --   -0.29094  -0.28891  -0.28568  -0.26901  -0.26858
 Alpha  occ. eigenvalues --   -0.26450  -0.26198  -0.25881  -0.25599  -0.25328
 Alpha  occ. eigenvalues --   -0.25120  -0.24987  -0.24919  -0.21213  -0.20877
 Alpha  occ. eigenvalues --   -0.18808  -0.18592
 Alpha virt. eigenvalues --   -0.11283  -0.10781  -0.05527  -0.05165  -0.04227
 Alpha virt. eigenvalues --   -0.03780  -0.02333  -0.02119  -0.01451  -0.00849
 Alpha virt. eigenvalues --   -0.00138   0.00388   0.01186   0.01308   0.01604

 Mulliken charges:
               1
     1  Mg  12.000000
     2  C    6.000000
     3  C    6.000000
     4  C    6.000000
     5  C    6.000000
     6  N    7.000000
     7  C    6.000000
     8  C    6.000000
     9  C    6.000000
    10  C    6.000000
    11  C    6.000000
    12  C    6.000000
    13  C    6.000000
    14  H    1.000000
    15  N    7.000000
    16  C    6.000000
    17  C    6.000000
    18  C    6.000000
    19  C    6.000000
    20  C    6.000000
    21  C    6.000000
    22  O    8.000000
    23  C    6.000000
    24  N    7.000000
    25  C    6.000000
    26  C    6.000000
    27  C    6.000000
    28  C    6.000000
    29  C    6.000000
    30  C    6.000000
    31  C    6.000000
    32  N    7.000000
    33  C    6.000000
    34  C    6.000000
    35  C    6.000000
    36  C    6.000000
    37  C    6.000000
    38  C    6.000000
    39  O    8.000000
    40  C    6.000000
    41  C    6.000000
    42  O    8.000000
    43  O    8.000000
    44  C    6.000000
    45  H    1.000000
    46  H    1.000000
    47  H    1.000000
    48  H    1.000000
    49  H    1.000000
    50  H    1.000000
    51  H    1.000000
    52  H    1.000000
    53  H    1.000000
    54  H    1.000000
    55  H    1.000000
    56  H    1.000000
    57  H    1.000000
    58  H    1.000000
    59  H    1.000000
    60  H    1.000000
    61  H    1.000000
    62  H    1.000000
    63  H    1.000000
    64  H    1.000000
    65  H    1.000000
    66  H    1.000000
    67  H    1.000000
    68  H    1.000000
    69  H    1.000000
    70  H    1.000000
    71  H    1.000000
    72  H    1.000000
    73  H    1.000000
    74  H    1.000000
    75  H    1.000000
    76  H    1.000000
    77  H    1.000000
    78  H    1.000000
    79  H    1.000000
    80  Mg  12.000000
    81  C    6.000000
    82  C    6.000000
    83  C    6.000000
    84  C    6.000000
    85  N    7.000000
    86  C    6.000000
    87  C    6.000000
    88  C    6.000000
    89  C    6.000000
    90  C    6.000000
    91  C    6.000000
    92  C    6.000000
    93  H    1.000000
    94  N    7.000000
    95  C    6.000000
    96  C    6.000000
    97  C    6.000000
    98  C    6.000000
    99  C    6.000000
   100  C    6.000000
   101  O    8.000000
   102  C    6.000000
   103  N    7.000000
   104  C    6.000000
   105  C    6.000000
   106  C    6.000000
   107  C    6.000000
   108  C    6.000000
   109  C    6.000000
   110  C    6.000000
   111  N    7.000000
   112  C    6.000000
   113  C    6.000000
   114  C    6.000000
   115  C    6.000000
   116  C    6.000000
   117  C    6.000000
   118  O    8.000000
   119  C    6.000000
   120  C    6.000000
   121  O    8.000000
   122  O    8.000000
   123  C    6.000000
   124  H    1.000000
   125  H    1.000000
   126  H    1.000000
   127  H    1.000000
   128  H    1.000000
   129  H    1.000000
   130  H    1.000000
   131  H    1.000000
   132  H    1.000000
   133  H    1.000000
   134  H    1.000000
   135  H    1.000000
   136  H    1.000000
   137  H    1.000000
   138  H    1.000000
   139  H    1.000000
   140  H    1.000000
   141  H    1.000000
   142  H    1.000000
   143  H    1.000000
   144  H    1.000000
   145  H    1.000000
   146  H    1.000000
   147  H    1.000000
   148  H    1.000000
   149  H    1.000000
   150  H    1.000000
   151  H    1.000000
   152  H    1.000000
   153  H    1.000000
   154  H    1.000000
   155  H    1.000000
   156  H    1.000000
   157  H    1.000000
   158  H    1.000000
 Sum of Mulliken charges = 624.00000

 Dipole moment (field-independent basis, Debye):
    X=              0.0000    Y=             -0.0000    Z=             -0.0000  Tot=              0.0000
 Quadrupole moment (field-independent basis, Debye-Ang):
   XX=              0.0000   YY=              0.0000   ZZ=              0.0000
   XY=              0.0000   XZ=              0.0000   YZ=              0.0000

 Normal termination of Gaussian 16 at Thu Oct 14 10:23:09 2021.
