 Gaussian 16, Revision A.03,
 Gaussian 16:  ES64L-G16RevA.03 25-Dec-2016

 --------------------------------------------------------
 #p PBE1PBE/Def2SVP td=(nstates=5) density=(transition=1)
 --------------------------------------------------------

 --------------------------------
 TDDFT excited states in gaussian
 --------------------------------
 Symbolic Z-matrix:
 Charge =  0 Multiplicity = 1

                         Standard orientation:
 ---------------------------------------------------------------------
 Center     Atomic      Atomic             Coordinates (Angstroms)
 Number     Number       Type             X           Y           Z
 ---------------------------------------------------------------------
      1         12           0       -9.319615   -0.998231    0.517924
      2          6           0      -10.252010    2.222222   -0.484055
      3          6           0       -7.644606    0.324790    3.187113
      4          6           0       -8.197025   -4.033079    1.203989
      5          6           0      -10.947653   -2.228408   -2.416796
      6          7           0       -8.962082    1.073221    1.220089
      7          6           0       -9.476413    2.251963    0.727418
      8          6           0       -9.246364    3.384602    1.710862
      9          6           0       -8.178129    2.779654    2.705241
     10          6           0       -8.358715    1.257447    2.381166
     11          6           0       -6.757355    3.263030    2.443569
     12          6           0      -10.623363    3.901724    2.266141
     13          6           0      -10.476733    4.913821    3.436133
     14          1           0       -9.232984    5.778132    3.435658
     15          7           0       -8.145741   -1.724781    1.952722
     16          6           0       -7.444376   -1.021720    2.924122
     17          6           0       -6.607259   -1.913737    3.745540
     18          6           0       -6.818308   -3.202337    3.165323
     19          6           0       -7.746066   -3.013259    2.053267
     20          6           0       -5.823574   -1.445132    4.913862
     21          6           0       -6.184545   -4.493242    3.615740
     22          8           0       -6.462452   -5.598741    3.073574
     23          6           0       -5.246688   -4.534592    4.791661
     24          7           0       -9.596685   -2.890711   -0.454371
     25          6           0       -9.006714   -3.964207    0.072004
     26          6           0       -9.212504   -5.228383   -0.873317
     27          6           0      -10.093681   -4.622149   -2.102525
     28          6           0      -10.212813   -3.165649   -1.651815
     29          6           0       -7.788326   -5.780750   -1.291053
     30          6           0      -11.542547   -5.256692   -2.248446
     31          6           0      -11.628891   -6.561439   -3.091314
     32          7           0      -10.313682   -0.239967   -1.142617
     33          6           0      -11.032663   -0.840586   -2.209649
     34          6           0      -11.717851    0.245121   -3.038515
     35          6           0      -11.384687    1.461312   -2.450819
     36          6           0      -10.591740    1.098648   -1.248497
     37          6           0      -12.616535    0.065574   -4.221747
     38          6           0      -11.561871    2.894343   -2.477476
     39          8           0      -12.169844    3.640015   -3.251903
     40          6           0      -10.980197    3.449472   -1.084052
     41          6           0      -10.082481    4.652411   -1.262564
     42          8           0       -8.904913    4.585182   -1.490801
     43          8           0      -10.747445    5.843736   -0.894097
     44          6           0       -9.911544    7.011954   -0.579040
     45          1           0       -7.122450    0.899673    3.955256
     46          1           0       -7.810560   -5.029962    1.426774
     47          1           0      -11.372190   -2.520814   -3.379561
     48          1           0       -8.813428    4.215660    1.155531
     49          1           0       -8.398194    2.904748    3.765934
     50          1           0       -6.421026    3.704746    3.381462
     51          1           0       -6.772225    3.922974    1.576491
     52          1           0       -6.044263    2.444757    2.346301
     53          1           0      -11.176353    2.968053    2.364083
     54          1           0      -11.099442    4.404295    1.424865
     55          1           0      -10.515208    4.274683    4.318291
     56          1           0      -11.338226    5.581049    3.413053
     57          1           0       -4.798088   -1.631887    4.595576
     58          1           0       -6.097014   -1.943301    5.843618
     59          1           0       -5.836322   -0.387210    5.179155
     60          1           0       -5.792753   -4.246251    5.688819
     61          1           0       -4.505010   -3.822981    4.426729
     62          1           0       -4.718512   -5.472951    4.958535
     63          1           0       -9.801894   -5.862917   -0.210290
     64          1           0       -9.588090   -4.467881   -3.056720
     65          1           0       -6.948000   -5.209022   -0.897625
     66          1           0       -7.692452   -5.771861   -2.377124
     67          1           0       -7.712730   -6.764272   -0.828237
     68          1           0      -12.297154   -4.512174   -2.500529
     69          1           0      -11.832491   -5.555681   -1.241676
     70          1           0      -12.097281   -7.312235   -2.455888
     71          1           0      -10.628217   -6.811464   -3.444027
     72          1           0      -12.262834   -6.439853   -3.969949
     73          1           0      -13.624488    0.289723   -3.871946
     74          1           0      -12.535669   -0.951819   -4.606373
     75          1           0      -12.472069    0.727206   -5.075585
     76          1           0      -11.849075    3.688283   -0.471450
     77          1           0       -9.613654    7.408778   -1.549187
     78          1           0       -9.117368    6.742875    0.117659
     79          1           0      -10.552257    7.702333   -0.031092
     80         12           0        9.527335   -0.498570   -0.286478
     81          6           0        7.915784    2.755115   -0.266023
     82          6           0       12.344702    1.154939    0.546130
     83          6           0       10.937984   -3.363187   -0.369084
     84          6           0        6.503466   -1.902358   -1.479151
     85          7           0       10.043732    1.816142    0.136590
     86          6           0        9.220821    2.878475    0.170045
     87          6           0        9.965410    4.112294    0.714886
     88          6           0       11.453404    3.572304    0.485066
     89          6           0       11.287041    2.111345    0.446572
     90          6           0       12.316694    4.258539   -0.560296
     91          6           0        9.532729    4.347056    2.172483
     92          6           0        9.687630    5.830948    2.618247
     93          1           0        9.964757    7.027108    1.594862
     94          7           0       11.420624   -1.080674    0.092059
     95          6           0       12.499222   -0.253924    0.341557
     96          6           0       13.692582   -1.089314    0.435611
     97          6           0       13.282533   -2.432033    0.245414
     98          6           0       11.822255   -2.316317   -0.029350
     99          6           0       15.042242   -0.576696    0.677666
    100          6           0       14.137390   -3.802544    0.328950
    101          8           0       13.603457   -4.877761    0.313867
    102          6           0       15.622759   -3.800501    0.732587
    103          7           0        8.866525   -2.318187   -1.111535
    104          6           0        9.614375   -3.390687   -0.864648
    105          6           0        8.958824   -4.699491   -1.214731
    106          6           0        7.478286   -4.248677   -1.171643
    107          6           0        7.655202   -2.711481   -1.422428
    108          6           0        9.360705   -5.273355   -2.652540
    109          6           0        6.673300   -4.615631    0.145024
    110          6           0        7.053889   -5.886677    0.958728
    111          7           0        7.648688    0.227242   -0.883784
    112          6           0        6.517350   -0.410243   -1.274223
    113          6           0        5.429978    0.456990   -1.342322
    114          6           0        5.956036    1.673185   -1.011866
    115          6           0        7.296457    1.527526   -0.713680
    116          6           0        3.987042    0.066754   -1.650567
    117          6           0        5.549797    3.074030   -0.823882
    118          8           0        4.536452    3.694089   -1.109710
    119          6           0        6.844593    3.793874   -0.243845
    120          6           0        7.089908    4.971246   -1.058213
    121          8           0        7.607626    5.004940   -2.179081
    122          8           0        6.413442    5.989855   -0.487551
    123          6           0        6.254639    7.122599   -1.381842
    124          1           0       13.280035    1.711789    0.633764
    125          1           0       11.462499   -4.318733   -0.425275
    126          1           0        5.570157   -2.396994   -1.755481
    127          1           0        9.834576    4.978804    0.066579
    128          1           0       11.988021    3.789205    1.408850
    129          1           0       13.152490    4.796079   -0.113438
    130          1           0       11.717975    4.959166   -1.142019
    131          1           0       12.712561    3.586044   -1.321342
    132          1           0       10.230300    3.800908    2.807868
    133          1           0        8.539056    3.966414    2.408042
    134          1           0       10.383426    5.931383    3.451862
    135          1           0        8.775832    5.982474    3.195803
    136          1           0       15.023629    0.389041    1.182301
    137          1           0       15.495839   -0.497778   -0.310473
    138          1           0       15.656736   -1.221186    1.306642
    139          1           0       15.800101   -3.476177    1.757969
    140          1           0       16.118822   -3.242453   -0.061821
    141          1           0       16.041713   -4.798838    0.603794
    142          1           0        9.309461   -5.362142   -0.423859
    143          1           0        6.885476   -4.649264   -1.993600
    144          1           0        9.558367   -6.319617   -2.420497
    145          1           0       10.256711   -4.824550   -3.082750
    146          1           0        8.578312   -5.244579   -3.409957
    147          1           0        5.611162   -4.641640   -0.094289
    148          1           0        6.971124   -3.791818    0.793910
    149          1           0        7.845403   -5.657940    1.671959
    150          1           0        7.289517   -6.617046    0.183898
    151          1           0        6.200182   -6.307529    1.488795
    152          1           0        3.899177   -0.957701   -1.288030
    153          1           0        3.770991    0.026622   -2.717787
    154          1           0        3.327717    0.752426   -1.118662
    155          1           0        6.606001    4.071332    0.783665
    156          1           0        5.690251    7.944737   -0.942705
    157          1           0        5.946681    6.899206   -2.403424
    158          1           0        7.217216    7.603905   -1.558133
 ---------------------------------------------------------------------

 SCF Done:  E(RPBE1PBE) =  -4067.36457331     A.U. after   16 cycles

 Excitation energies and oscillator strengths:

 Excited State   1:      Singlet-A      1.7920 eV  691.89 nm  f=0.0000  <S**2>=0.000
     312 -> 313        0.70707
 This state for optimization and/or second-order correction.
 Total Energy, E(TD-HF/TD-DFT) =  -4067.29871977
 Copying the excited state density for this state as the 1-particle RhoCI density.

 Excited State   2:      Singlet-A      1.8616 eV  666.01 nm  f=0.3925  <S**2>=0.000
     309 -> 315        0.19104
     312 -> 314        0.68789
     312 <- 314       -0.10015

 Excited State   3:      Singlet-A      1.9474 eV  636.68 nm  f=0.3464  <S**2>=0.000
     310 -> 316        0.18516
     311 -> 313        0.68701

 Excited State   4:      Singlet-A      2.1197 eV  584.91 nm  f=0.0000  <S**2>=0.000
     311 -> 314        0.70707

 Excited State   5:      Singlet-A      2.2406 eV  553.35 nm  f=0.1419  <S**2>=0.000
     310 -> 313        0.66517
     311 -> 316       -0.23012

 The electronic state is 1-A.
 Alpha  occ. eigenvalues --  -46.92764 -46.91387 -19.25574 -19.24494 -19.20511
 Alpha  occ. eigenvalues --  -19.20321 -19.19319 -19.19299 -19.19036 -19.18508
 Alpha  occ. eigenvalues --  -14.41484 -14.41033 -14.40787 -14.40746 -14.39537
 Alpha  occ. eigenvalues --  -14.39445 -14.39412 -14.38481 -10.36270 -10.35229
 Alpha  occ. eigenvalues --  -10.33951 -10.32569 -10.32253 -10.32190 -10.28823
 Alpha  occ. eigenvalues --  -10.28654 -10.28596 -10.28484 -10.28345 -10.28245
 Alpha  occ. eigenvalues --  -10.28124 -10.28044 -10.27971 -10.27962 -10.27809
 Alpha  occ. eigenvalues --  -10.27787 -10.27643 -10.27546 -10.27510 -10.27174
 Alpha  occ. eigenvalues --  -10.27024 -10.26770 -10.26744 -10.26674 -10.26662
 Alpha  occ. eigenvalues --  -10.26523 -10.26083 -10.26054 -10.26020 -10.25933
 Alpha  occ. eigenvalues --  -10.25831 -10.25819 -10.25748 -10.25463 -10.25375
 Alpha  occ. eigenvalues --  -10.25296 -10.25242 -10.25194 -10.25189 -10.25176
 Alpha  occ. eigenvalues --  -10.25150 -10.25132 -10.24857 -10.24832 -10.24662
 Alpha  occ. eigenvalues --  -10.24445 -10.24439 -10.24357 -10.24248 -10.24245
 Alpha  occ. eigenvalues --  -10.24052 -10.23926 -10.23654 -10.23589 -10.23579
 Alpha  occ. eigenvalues --  -10.23572 -10.23466 -10.23459 -10.23120 -10.23069
 Alpha  occ. eigenvalues --  -10.23031 -10.22995 -10.22900 -10.22785 -10.22774
 Alpha  occ. eigenvalues --  -10.21745  -3.14847  -3.13645  -1.87689  -1.87239
 Alpha  occ. eigenvalues --   -1.87055  -1.86492  -1.86005  -1.85899  -1.11303
 Alpha  occ. eigenvalues --   -1.10049  -1.07168  -1.04409  -1.03735  -1.02457
 Alpha  occ. eigenvalues --   -1.02371  -1.01466  -1.00449  -0.99773  -0.99169
 Alpha  occ. eigenvalues --   -0.98811  -0.98384  -0.97993  -0.97344  -0.95965
 Alpha  occ. eigenvalues --   -0.86810  -0.85838  -0.83229  -0.83056  -0.82980
 Alpha  occ. eigenvalues --   -0.82706  -0.82416  -0.82007  -0.81758  -0.81735
 Alpha  occ. eigenvalues --   -0.81255  -0.80946  -0.80557  -0.80179  -0.78602
 Alpha  occ. eigenvalues --   -0.78388  -0.77475  -0.77135  -0.76634  -0.76228
 Alpha  occ. eigenvalues --   -0.76087  -0.75908  -0.75088  -0.74934  -0.74465
 Alpha  occ. eigenvalues --   -0.74223  -0.73111  -0.72695  -0.71665  -0.71161
 Alpha  occ. eigenvalues --   -0.71158  -0.70985  -0.70116  -0.69955  -0.69593
 Alpha  occ. eigenvalues --   -0.68803  -0.67316  -0.66419  -0.66068  -0.65798
 Alpha  occ. eigenvalues --   -0.63978  -0.63597  -0.63172  -0.62896  -0.62667
 Alpha  occ. eigenvalues --   -0.62203  -0.61389  -0.61082  -0.59930  -0.59844
 Alpha  occ. eigenvalues --   -0.59547  -0.59537  -0.59141  -0.58351  -0.58261
 Alpha  occ. eigenvalues --   -0.58171  -0.56447  -0.55724  -0.55191  -0.55092
 Alpha  occ. eigenvalues --   -0.54012  -0.53951  -0.53845  -0.53150  -0.52971
 Alpha  occ. eigenvalues --   -0.52519  -0.52138  -0.52088  -0.52053  -0.51258
 Alpha  occ. eigenvalues --   -0.51009  -0.50646  -0.50186  -0.50023  -0.49815
 Alpha  occ. eigenvalues --   -0.49147  -0.49057  -0.48617  -0.48562  -0.48351
 Alpha  occ. eigenvalues --   -0.48224  -0.48041  -0.47871  -0.47728  -0.47567
 Alpha  occ. eigenvalues --   -0.47247  -0.47045  -0.46839  -0.46681  -0.46387
 Alpha  occ. eigenvalues --   -0.46255  -0.46086  -0.45940  -0.45872  -0.45751
 Alpha  occ. eigenvalues --   -0.45630  -0.45253  -0.45252  -0.45006  -0.44931
 Alpha  occ. eigenvalues --   -0.44751  -0.44503  -0.44290  -0.43985  -0.43919
 Alpha  occ. eigenvalues --   -0.43774  -0.43566  -0.43537  -0.43457  -0.43431
 Alpha  occ. eigenvalues --   -0.43346  -0.43306  -0.43054  -0.42883  -0.42680
 Alpha  occ. eigenvalues --   -0.42656  -0.42589  -0.42228  -0.42094  -0.41921
 Alpha  occ. eigenvalues --   -0.41733  -0.41465  -0.41422  -0.40815  -0.40786
 Alpha  occ. eigenvalues --   -0.40660  -0.40569  -0.40352  -0.40280  -0.40222
 Alpha  occ. eigenvalues --   -0.39880  -0.39837  -0.39740  -0.39561  -0.39442
 Alpha  occ. eigenvalues --   -0.39320  -0.39126  -0.38973  -0.38868  -0.38835
 Alpha  occ. eigenvalues --   -0.38704  -0.38675  -0.38423  -0.38197  -0.38079
 Alpha  occ. eigenvalues --   -0.38018  -0.37871  -0.37832  -0.37731  -0.37606
 Alpha  occ. eigenvalues --   -0.37566  -0.37404  -0.37365  -0.37162  -0.37087
 Alpha  occ. eigenvalues --   -0.37069  -0.36917  -0.36299  -0.36175  -0.36158
 Alpha  occ. eigenvalues --   -0.35959  -0.35658  -0.35352  -0.35191  -0.34955
 Alpha  occ. eigenvalues --   -0.34643  -0.34230  -0.34015  -0.33957  -0.33634
 Alpha  occ. eigenvalues --   -0.33347  -0.33183  -0.33161  -0.33008  -0.32893
 Alpha  occ. eigenvalues --   -0.32439  -0.31681  -0.31646  -0.31064  -0.30860
 Alpha  occ. eigenvalues --   -0.30809  -0.30706  -0.29427  -0.29285  -0.29229
 Alpha  occ. eigenvalues --   -0.28672  -0.28575  -0.27990  -0.26962  -0.26731
 Alpha  occ. eigenvalues --   -0.26580  -0.26284  -0.26165  -0.25652  -0.25532
 Alpha  occ. eigenvalues --   -0.25482  -0.25295  -0.25115  -0.20779  -0.20351
 Alpha  occ. eigenvalues --   -0.18888  -0.18051
 Alpha virt. eigenvalues --   -0.10775  -0.10372  -0.05432  -0.04648  -0.04299
 Alpha virt. eigenvalues --   -0.03626  -0.02093  -0.01833  -0.00464  -0.00057
 Alpha virt. eigenvalues --    0.00097   0.00714   0.01098   0.01215   0.01836

 Mulliken charges:
               1
     1  Mg  12.000000
     2  C    6.000000
     3  C    6.000000
     4  C    6.000000
     5  C    6.000000
     6  N    7.000000
     7  C    6.000000
     8  C    6.000000
     9  C    6.000000
    10  C    6.000000
    11  C    6.000000
    12  C    6.000000
    13  C    6.000000
    14  H    1.000000
    15  N    7.000000
    16  C    6.000000
    17  C    6.000000
    18  C    6.000000
    19  C    6.000000
    20  C    6.000000
    21  C    6.000000
    22  O    8.000000
    23  C    6.000000
    24  N    7.000000
    25  C    6.000000
    26  C    6.000000
    27  C    6.000000
    28  C    6.000000
    29  C    6.000000
    30  C    6.000000
    31  C    6.000000
    32  N    7.000000
    33  C    6.000000
    34  C    6.000000
    35  C    6.000000
    36  C    6.000000
    37  C    6.000000
    38  C    6.000000
    39  O    8.000000
    40  C    6.000000
    41  C    6.000000
    42  O    8.000000
    43  O    8.000000
    44  C    6.000000
    45  H    1.000000
    46  H    1.000000
    47  H    1.000000
    48  H    1.000000
    49  H    1.000000
    50  H    1.000000
    51  H    1.000000
    52  H    1.000000
    53  H    1.000000
    54  H    1.000000
    55  H    1.000000
    56  H    1.000000
    57  H    1.000000
    58  H    1.000000
    59  H    1.000000
    60  H    1.000000
    61  H    1.000000
    62  H    1.000000
    63  H    1.000000
    64  H    1.000000
    65  H    1.000000
    66  H    1.000000
    67  H    1.000000
    68  H    1.000000
    69  H    1.000000
    70  H    1.000000
    71  H    1.000000
    72  H    1.000000
    73  H    1.000000
    74  H    1.000000
    75  H    1.000000
    76  H    1.000000
    77  H    1.000000
    78  H    1.000000
    79  H    1.000000
    80  Mg  12.000000
    81  C    6.000000
    82  C    6.000000
    83  C    6.000000
    84  C    6.000000
    85  N    7.000000
    86  C    6.000000
    87  C    6.000000
    88  C    6.000000
    89  C    6.000000
    90  C    6.000000
    91  C    6.000000
    92  C    6.000000
    93  H    1.000000
    94  N    7.000000
    95  C    6.000000
    96  C    6.000000
    97  C    6.000000
    98  C    6.000000
    99  C    6.000000
   100  C    6.000000
   101  O    8.000000
   102  C    6.000000
   103  N    7.000000
   104  C    6.000000
   105  C    6.000000
   106  C    6.000000
   107  C    6.000000
   108  C    6.000000
   109  C    6.000000
   110  C    6.000000
   111  N    7.000000
   112  C    6.000000
   113  C    6.000000
   114  C    6.000000
   115  C    6.000000
   116  C    6.000000
   117  C    6.000000
   118  O    8.000000
   119  C    6.000000
   120  C    6.000000
   121  O    8.000000
   122  O    8.000000
   123  C    6.000000
   124  H    1.000000
   125  H    1.000000
   126  H    1.000000
   127  H    1.000000
   128  H    1.000000
   129  H    1.000000
   130  H    1.000000
   131  H    1.000000
   132  H    1.000000
   133  H    1.000000
   134  H    1.000000
   135  H    1.000000
   136  H    1.000000
   137  H    1.000000
   138  H    1.000000
   139  H    1.000000
   140  H    1.000000
   141  H    1.000000
   142  H    1.000000
   143  H    1.000000
   144  H    1.000000
   145  H    1.000000
   146  H    1.000000
   147  H    1.000000
   148  H    1.000000
   149  H    1.000000
   150  H    1.000000
   151  H    1.000000
   152  H    1.000000
   153  H    1.000000
   154  H    1.000000
   155  H    1.000000
   156  H    1.000000
   157  H    1.000000
   158  H    1.000000
 Sum of Mulliken charges = 624.00000

 Dipole moment (field-independent basis, Debye):
    X=             -0.0000    Y=              0.0000    Z=             -0.0000  Tot=              0.0000
 Quadrupole moment (field-independent basis, Debye-Ang):
   XX=              0.0000   YY=             -0.0000   ZZ=             -0.0000
   XY=             -0.0000   XZ=              0.0000   YZ=              0.0000

 Normal termination of Gaussian 16 at Thu Oct 14 18:48:48 2021.
