 Gaussian 16, Revision A.03,
 Gaussian 16:  ES64L-G16RevA.03 25-Dec-2016

 --------------------------------------------------------
 #p PBE1PBE/Def2SVP td=(nstates=5) density=(transition=1)
 --------------------------------------------------------

 --------------------------------
 TDDFT excited states in gaussian
 --------------------------------
 Symbolic Z-matrix:
 Charge =  0 Multiplicity = 1

                         Standard orientation:
 ---------------------------------------------------------------------
 Center     Atomic      Atomic             Coordinates (Angstroms)
 Number     Number       Type             X           Y           Z
 ---------------------------------------------------------------------
      1         12           0      -16.471216   -0.755499   -0.142955
      2          6           0      -18.849279    1.731754    0.842239
      3          6           0      -14.719978    1.739581   -1.676189
      4          6           0      -14.606375   -2.988256   -1.405407
      5          6           0      -18.936595   -3.142270    0.466052
      6          7           0      -16.838980    1.420075   -0.322604
      7          6           0      -17.755497    2.258180    0.151471
      8          6           0      -17.405521    3.757127   -0.089462
      9          6           0      -16.434528    3.590571   -1.343029
     10          6           0      -15.939790    2.178977   -1.081191
     11          6           0      -17.160996    3.615612   -2.683969
     12          6           0      -16.661479    4.397445    1.130425
     13          6           0      -16.574508    5.926335    1.113541
     14          1           0      -16.657111    6.646429    2.375281
     15          7           0      -14.666415   -0.619989   -0.934902
     16          6           0      -14.110240    0.478662   -1.499633
     17          6           0      -12.758349    0.071075   -1.938887
     18          6           0      -12.645053   -1.402469   -1.754700
     19          6           0      -13.994458   -1.737305   -1.377382
     20          6           0      -11.722509    1.040191   -2.420137
     21          6           0      -11.504589   -2.358736   -1.906446
     22          8           0      -11.676790   -3.625475   -1.923596
     23          6           0      -10.173638   -1.764295   -2.126111
     24          7           0      -16.791124   -2.756781   -0.643118
     25          6           0      -15.798753   -3.515858   -1.120595
     26          6           0      -16.180586   -4.966322   -1.137800
     27          6           0      -17.560673   -5.069617   -0.341280
     28          6           0      -17.784210   -3.563209   -0.060150
     29          6           0      -16.344401   -5.598822   -2.526728
     30          6           0      -17.612339   -6.057989    0.850723
     31          6           0      -16.711430   -5.568704    1.962505
     32          7           0      -18.471571   -0.761659    0.699417
     33          6           0      -19.325611   -1.865608    0.835747
     34          6           0      -20.608231   -1.357812    1.356417
     35          6           0      -20.415451    0.017450    1.471895
     36          6           0      -19.104909    0.351153    1.025335
     37          6           0      -21.774255   -2.135246    1.602219
     38          6           0      -21.020171    1.285765    1.845453
     39          8           0      -22.078956    1.617341    2.380734
     40          6           0      -20.073006    2.461127    1.338273
     41          6           0      -19.901126    3.429606    2.476612
     42          8           0      -19.285363    3.098912    3.510460
     43          8           0      -20.275994    4.654899    2.078273
     44          6           0      -20.102526    5.669444    3.151940
     45          1           0      -14.213937    2.394689   -2.388016
     46          1           0      -13.958746   -3.805060   -1.730745
     47          1           0      -19.723568   -3.839119    0.760212
     48          1           0      -18.255469    4.384856   -0.357730
     49          1           0      -15.603858    4.295321   -1.310826
     50          1           0      -18.242783    3.614371   -2.551094
     51          1           0      -16.840468    2.713545   -3.205535
     52          1           0      -16.819131    4.452014   -3.294164
     53          1           0      -15.601264    4.150680    1.074633
     54          1           0      -17.109871    4.072196    2.069831
     55          1           0      -17.259861    6.356490    0.382674
     56          1           0      -15.584408    6.208168    0.755111
     57          1           0      -12.149813    2.025465   -2.602322
     58          1           0      -11.399015    0.698424   -3.403120
     59          1           0      -10.865444    1.091944   -1.748502
     60          1           0      -10.196682   -1.153965   -3.029170
     61          1           0       -9.468937   -2.595098   -2.122528
     62          1           0       -9.949961   -1.085265   -1.302802
     63          1           0      -15.430620   -5.574138   -0.633285
     64          1           0      -18.381719   -5.386201   -0.984966
     65          1           0      -15.709185   -6.469988   -2.688825
     66          1           0      -16.149949   -4.828802   -3.272750
     67          1           0      -17.363369   -5.891840   -2.778245
     68          1           0      -17.244348   -7.037514    0.547309
     69          1           0      -18.615450   -6.191482    1.255939
     70          1           0      -15.731451   -5.937621    1.661883
     71          1           0      -17.015471   -6.000817    2.916470
     72          1           0      -16.657973   -4.480006    1.981570
     73          1           0      -22.169829   -1.797378    2.559995
     74          1           0      -21.543214   -3.200052    1.622485
     75          1           0      -22.386842   -1.857129    0.744755
     76          1           0      -20.570767    2.918133    0.483580
     77          1           0      -21.069794    6.150195    3.298584
     78          1           0      -19.265022    6.299046    2.850954
     79          1           0      -19.910698    5.283242    4.153633
     80         12           0       17.156652   -0.547931    0.350563
     81          6           0       16.265648    2.471440   -1.200106
     82          6           0       19.029894    1.071180    2.584607
     83          6           0       17.929015   -3.434508    1.593444
     84          6           0       15.976311   -2.149592   -2.671052
     85          7           0       17.648685    1.540375    0.548465
     86          6           0       17.083374    2.604346   -0.035659
     87          6           0       17.675544    3.899332    0.457474
     88          6           0       18.859217    3.401185    1.380257
     89          6           0       18.500864    1.936004    1.536534
     90          6           0       20.327775    3.618556    0.890728
     91          6           0       16.598461    4.713742    1.340684
     92          6           0       16.487019    6.223688    0.949030
     93          1           0       15.191929    6.924015    1.633626
     94          7           0       18.083478   -1.072829    1.976805
     95          6           0       18.790305   -0.254822    2.841687
     96          6           0       19.114033   -1.010349    4.020433
     97          6           0       18.776249   -2.410412    3.814640
     98          6           0       18.119374   -2.371783    2.452152
     99          6           0       19.885772   -0.308464    5.174606
    100          6           0       18.909701   -3.697153    4.621116
    101          8           0       18.468940   -4.816647    4.303745
    102          6           0       19.547532   -3.476131    5.946876
    103          7           0       17.089671   -2.447752   -0.554079
    104          6           0       17.504311   -3.474700    0.257520
    105          6           0       17.481485   -4.807454   -0.491759
    106          6           0       16.580402   -4.458788   -1.705383
    107          6           0       16.583372   -2.928856   -1.703039
    108          6           0       18.958155   -5.302030   -0.760057
    109          6           0       15.109455   -5.055497   -1.676712
    110          6           0       14.406858   -5.229912   -3.032639
    111          7           0       16.256305   -0.005092   -1.553366
    112          6           0       15.857535   -0.761018   -2.613819
    113          6           0       15.184594    0.045500   -3.607286
    114          6           0       15.274798    1.323420   -3.025731
    115          6           0       15.984344    1.259019   -1.818003
    116          6           0       14.520888   -0.311803   -4.957107
    117          6           0       14.892411    2.692872   -3.229087
    118          8           0       14.153996    3.238951   -4.006344
    119          6           0       15.691773    3.522308   -2.095639
    120          6           0       14.645487    4.443352   -1.643930
    121          8           0       13.721878    4.246834   -0.814246
    122          8           0       14.865114    5.579283   -2.328239
    123          6           0       13.946317    6.700031   -2.123810
    124          1           0       19.570532    1.598725    3.373375
    125          1           0       18.119322   -4.412109    2.041696
    126          1           0       15.551471   -2.695201   -3.516200
    127          1           0       18.002812    4.587154   -0.322698
    128          1           0       18.861698    3.780323    2.402366
    129          1           0       20.742299    2.641014    0.644453
    130          1           0       20.850983    4.040820    1.748482
    131          1           0       20.499612    4.240323    0.012803
    132          1           0       16.720026    4.644791    2.422333
    133          1           0       15.654789    4.178729    1.233588
    134          1           0       16.401384    6.333067   -0.131886
    135          1           0       17.305236    6.854677    1.295288
    136          1           0       19.151358    0.112881    5.859668
    137          1           0       20.369922    0.621965    4.875421
    138          1           0       20.729775   -0.846110    5.606057
    139          1           0       19.002809   -2.801396    6.606316
    140          1           0       20.536536   -3.114554    5.662757
    141          1           0       19.725923   -4.395041    6.506054
    142          1           0       17.003444   -5.509998    0.191018
    143          1           0       17.027403   -4.866667   -2.611938
    144          1           0       19.208314   -5.186804   -1.814612
    145          1           0       19.211062   -6.338776   -0.539542
    146          1           0       19.759950   -4.724640   -0.299316
    147          1           0       14.541991   -4.263574   -1.187142
    148          1           0       14.955726   -5.994993   -1.145412
    149          1           0       13.544568   -4.570008   -3.136421
    150          1           0       14.037404   -6.215322   -3.317229
    151          1           0       15.112024   -4.850339   -3.770744
    152          1           0       15.005648   -1.229823   -5.289300
    153          1           0       14.657385    0.488214   -5.685938
    154          1           0       13.471016   -0.506492   -4.738346
    155          1           0       16.482092    4.110287   -2.562640
    156          1           0       14.477921    7.488906   -1.591955
    157          1           0       13.003541    6.384891   -1.677910
    158          1           0       13.726657    7.139829   -3.096576
 ---------------------------------------------------------------------

 SCF Done:  E(RPBE1PBE) =  -4067.37452269     A.U. after   16 cycles

 Excitation energies and oscillator strengths:

 Excited State   1:      Singlet-A      1.8415 eV  673.29 nm  f=0.3789  <S**2>=0.000
     310 -> 316        0.16207
     312 -> 313        0.69288
     312 <- 313       -0.11098
 This state for optimization and/or second-order correction.
 Total Energy, E(TD-HF/TD-DFT) =  -4067.30684987
 Copying the excited state density for this state as the 1-particle RhoCI density.

 Excited State   2:      Singlet-A      1.8755 eV  661.08 nm  f=0.3686  <S**2>=0.000
     309 -> 315        0.18966
     311 -> 314        0.68764

 Excited State   3:      Singlet-A      1.9730 eV  628.40 nm  f=0.0000  <S**2>=0.000
     311 -> 313        0.70710

 Excited State   4:      Singlet-A      1.9829 eV  625.26 nm  f=0.0000  <S**2>=0.000
     312 -> 314        0.70710

 Excited State   5:      Singlet-A      2.1931 eV  565.33 nm  f=0.0916  <S**2>=0.000
     310 -> 313        0.65169
     312 -> 316       -0.24159

 The electronic state is 1-A.
 Alpha  occ. eigenvalues --  -46.91135 -46.91011 -19.26874 -19.25546 -19.19835
 Alpha  occ. eigenvalues --  -19.19319 -19.19254 -19.18949 -19.18714 -19.18364
 Alpha  occ. eigenvalues --  -14.42088 -14.41891 -14.41308 -14.40904 -14.39142
 Alpha  occ. eigenvalues --  -14.38995 -14.38201 -14.38117 -10.36056 -10.35586
 Alpha  occ. eigenvalues --  -10.33049 -10.32430 -10.31868 -10.31520 -10.29467
 Alpha  occ. eigenvalues --  -10.29091 -10.29009 -10.28858 -10.28580 -10.28510
 Alpha  occ. eigenvalues --  -10.28261 -10.28244 -10.28163 -10.28093 -10.28081
 Alpha  occ. eigenvalues --  -10.27948 -10.27746 -10.27627 -10.27491 -10.27202
 Alpha  occ. eigenvalues --  -10.27048 -10.26988 -10.26982 -10.26596 -10.26513
 Alpha  occ. eigenvalues --  -10.26241 -10.26203 -10.26007 -10.25964 -10.25845
 Alpha  occ. eigenvalues --  -10.25692 -10.25626 -10.25602 -10.25566 -10.25532
 Alpha  occ. eigenvalues --  -10.25399 -10.25324 -10.25294 -10.25221 -10.25215
 Alpha  occ. eigenvalues --  -10.25202 -10.25157 -10.25074 -10.24958 -10.24788
 Alpha  occ. eigenvalues --  -10.24724 -10.24474 -10.24227 -10.24159 -10.24126
 Alpha  occ. eigenvalues --  -10.24001 -10.23963 -10.23743 -10.23634 -10.23560
 Alpha  occ. eigenvalues --  -10.23546 -10.23519 -10.23396 -10.23276 -10.23226
 Alpha  occ. eigenvalues --  -10.22862 -10.22858 -10.22541 -10.22347 -10.22258
 Alpha  occ. eigenvalues --  -10.22040  -3.13453  -3.13425  -1.86275  -1.86252
 Alpha  occ. eigenvalues --   -1.85841  -1.85812  -1.85687  -1.85664  -1.11372
 Alpha  occ. eigenvalues --   -1.10739  -1.05592  -1.04046  -1.03316  -1.01776
 Alpha  occ. eigenvalues --   -1.01399  -1.00345  -0.99873  -0.99117  -0.99011
 Alpha  occ. eigenvalues --   -0.98313  -0.98296  -0.97844  -0.97060  -0.97034
 Alpha  occ. eigenvalues --   -0.87129  -0.86276  -0.83780  -0.83449  -0.83398
 Alpha  occ. eigenvalues --   -0.82556  -0.82538  -0.82376  -0.82151  -0.81919
 Alpha  occ. eigenvalues --   -0.81817  -0.81378  -0.81194  -0.80645  -0.79178
 Alpha  occ. eigenvalues --   -0.78840  -0.78172  -0.78143  -0.77098  -0.76814
 Alpha  occ. eigenvalues --   -0.76714  -0.76483  -0.75841  -0.75656  -0.74888
 Alpha  occ. eigenvalues --   -0.74650  -0.73046  -0.72483  -0.71658  -0.71490
 Alpha  occ. eigenvalues --   -0.71235  -0.71177  -0.70264  -0.70187  -0.69760
 Alpha  occ. eigenvalues --   -0.69173  -0.67272  -0.67187  -0.66622  -0.66034
 Alpha  occ. eigenvalues --   -0.64167  -0.63618  -0.63228  -0.63177  -0.62331
 Alpha  occ. eigenvalues --   -0.62063  -0.61645  -0.61497  -0.60505  -0.60028
 Alpha  occ. eigenvalues --   -0.59652  -0.59457  -0.59365  -0.59042  -0.59037
 Alpha  occ. eigenvalues --   -0.58714  -0.56823  -0.56383  -0.54887  -0.54800
 Alpha  occ. eigenvalues --   -0.54401  -0.54251  -0.53785  -0.53568  -0.53289
 Alpha  occ. eigenvalues --   -0.53064  -0.52651  -0.52051  -0.51749  -0.51589
 Alpha  occ. eigenvalues --   -0.50932  -0.50817  -0.50421  -0.50321  -0.50069
 Alpha  occ. eigenvalues --   -0.49997  -0.49783  -0.49028  -0.48906  -0.48515
 Alpha  occ. eigenvalues --   -0.48405  -0.47961  -0.47899  -0.47697  -0.47688
 Alpha  occ. eigenvalues --   -0.47499  -0.47482  -0.47121  -0.47042  -0.46925
 Alpha  occ. eigenvalues --   -0.46791  -0.46365  -0.46248  -0.46128  -0.45977
 Alpha  occ. eigenvalues --   -0.45806  -0.45617  -0.45245  -0.45063  -0.45020
 Alpha  occ. eigenvalues --   -0.44784  -0.44593  -0.44579  -0.44425  -0.44071
 Alpha  occ. eigenvalues --   -0.44054  -0.43808  -0.43743  -0.43653  -0.43545
 Alpha  occ. eigenvalues --   -0.43167  -0.43105  -0.43063  -0.42951  -0.42732
 Alpha  occ. eigenvalues --   -0.42661  -0.42281  -0.42143  -0.41989  -0.41893
 Alpha  occ. eigenvalues --   -0.41620  -0.41511  -0.41223  -0.41190  -0.41125
 Alpha  occ. eigenvalues --   -0.41016  -0.40822  -0.40623  -0.40503  -0.40501
 Alpha  occ. eigenvalues --   -0.40296  -0.39968  -0.39887  -0.39675  -0.39250
 Alpha  occ. eigenvalues --   -0.39166  -0.38937  -0.38845  -0.38783  -0.38687
 Alpha  occ. eigenvalues --   -0.38603  -0.38418  -0.38303  -0.38229  -0.38184
 Alpha  occ. eigenvalues --   -0.37958  -0.37805  -0.37731  -0.37676  -0.37450
 Alpha  occ. eigenvalues --   -0.37440  -0.37393  -0.37068  -0.36889  -0.36805
 Alpha  occ. eigenvalues --   -0.36706  -0.36510  -0.36314  -0.36253  -0.36044
 Alpha  occ. eigenvalues --   -0.35908  -0.35724  -0.35715  -0.35541  -0.35532
 Alpha  occ. eigenvalues --   -0.35428  -0.35222  -0.34955  -0.34539  -0.34283
 Alpha  occ. eigenvalues --   -0.33700  -0.33364  -0.32852  -0.32670  -0.32461
 Alpha  occ. eigenvalues --   -0.32328  -0.32200  -0.32039  -0.31655  -0.31204
 Alpha  occ. eigenvalues --   -0.30503  -0.30383  -0.29479  -0.29455  -0.29204
 Alpha  occ. eigenvalues --   -0.28864  -0.28362  -0.27898  -0.27004  -0.26666
 Alpha  occ. eigenvalues --   -0.26425  -0.25992  -0.25941  -0.25597  -0.25235
 Alpha  occ. eigenvalues --   -0.25061  -0.24896  -0.24777  -0.21132  -0.20922
 Alpha  occ. eigenvalues --   -0.18812  -0.18705
 Alpha virt. eigenvalues --   -0.11169  -0.11029  -0.05765  -0.05289  -0.04489
 Alpha virt. eigenvalues --   -0.04097  -0.02122  -0.01973   0.00148   0.00407
 Alpha virt. eigenvalues --    0.00474   0.00503   0.00818   0.00934   0.01463

 Mulliken charges:
               1
     1  Mg  12.000646
     2  C    5.985427
     3  C    6.011897
     4  C    6.012283
     5  C    5.985581
     6  N    6.991936
     7  C    6.031756
     8  C    5.991678
     9  C    6.008724
    10  C    5.972846
    11  C    6.000790
    12  C    5.996393
    13  C    5.998988
    14  H    0.999630
    15  N    7.003199
    16  C    5.963671
    17  C    5.970813
    18  C    5.984813
    19  C    5.979414
    20  C    6.005145
    21  C    5.985546
    22  O    7.969591
    23  C    6.004864
    24  N    7.000698
    25  C    5.973493
    26  C    6.011258
    27  C    5.988164
    28  C    6.031298
    29  C    5.999538
    30  C    5.996302
    31  C    5.999018
    32  N    6.996731
    33  C    6.043846
    34  C    6.022661
    35  C    6.006180
    36  C    6.028849
    37  C    5.996727
    38  C    6.014471
    39  O    8.030451
    40  C    6.001377
    41  C    6.003394
    42  O    8.004355
    43  O    8.001761
    44  C    5.998754
    45  H    0.992275
    46  H    0.994009
    47  H    1.008856
    48  H    0.999203
    49  H    1.000413
    50  H    0.984541
    51  H    1.004442
    52  H    0.996709
    53  H    1.013169
    54  H    0.994379
    55  H    1.000746
    56  H    1.006566
    57  H    0.980742
    58  H    0.980272
    59  H    0.979500
    60  H    0.994827
    61  H    0.985592
    62  H    0.992878
    63  H    1.000957
    64  H    1.003989
    65  H    1.000056
    66  H    1.005301
    67  H    0.990566
    68  H    1.008978
    69  H    0.997156
    70  H    1.011249
    71  H    1.001394
    72  H    0.997324
    73  H    1.015546
    74  H    1.016484
    75  H    1.018207
    76  H    1.007749
    77  H    1.002868
    78  H    1.005926
    79  H    1.002177
    80  Mg  12.000113
    81  C    5.999469
    82  C    6.000297
    83  C    6.000213
    84  C    5.999611
    85  N    6.999850
    86  C    6.001133
    87  C    5.999610
    88  C    6.000253
    89  C    5.998966
    90  C    6.000080
    91  C    5.999940
    92  C    5.999944
    93  H    1.000181
    94  N    7.000145
    95  C    5.998996
    96  C    5.999255
    97  C    5.999337
    98  C    5.999431
    99  C    6.000124
   100  C    5.999536
   101  O    7.998971
   102  C    6.000221
   103  N    6.999877
   104  C    5.999286
   105  C    6.000206
   106  C    5.999723
   107  C    6.001005
   108  C    6.000167
   109  C    5.999899
   110  C    5.999960
   111  N    6.999988
   112  C    6.001029
   113  C    6.000978
   114  C    6.000043
   115  C    6.000947
   116  C    6.000087
   117  C    6.000550
   118  O    8.001030
   119  C    6.000058
   120  C    6.000089
   121  O    8.000374
   122  O    7.999975
   123  C    5.999893
   124  H    0.999654
   125  H    0.999788
   126  H    1.000353
   127  H    1.000003
   128  H    1.000010
   129  H    0.999977
   130  H    0.999863
   131  H    0.999540
   132  H    1.000342
   133  H    0.999999
   134  H    0.999874
   135  H    1.000055
   136  H    0.999408
   137  H    0.999389
   138  H    0.999411
   139  H    0.999718
   140  H    0.999744
   141  H    0.999437
   142  H    1.000083
   143  H    1.000076
   144  H    0.999596
   145  H    0.999867
   146  H    1.000089
   147  H    1.000131
   148  H    1.000363
   149  H    1.000085
   150  H    1.000216
   151  H    0.999845
   152  H    1.000430
   153  H    1.000423
   154  H    1.000762
   155  H    1.000171
   156  H    1.000101
   157  H    1.000235
   158  H    1.000125
 Sum of Mulliken charges = 624.00000

 Dipole moment (field-independent basis, Debye):
    X=             -9.5654    Y=              0.0435    Z=              4.1255  Tot=             10.4172
 Quadrupole moment (field-independent basis, Debye-Ang):
   XX=            302.1319   YY=              4.0304   ZZ=             -2.2159
   XY=              8.8614   XZ=            -75.8245   YZ=             -0.6773

 Normal termination of Gaussian 16 at Thu Oct 14 15:09:20 2021.
