 Gaussian 16, Revision A.03,
 Gaussian 16:  ES64L-G16RevA.03 25-Dec-2016

 --------------------------------------------------------
 #p PBE1PBE/Def2SVP td=(nstates=5) density=(transition=1)
 --------------------------------------------------------

 --------------------------------
 TDDFT excited states in gaussian
 --------------------------------
 Symbolic Z-matrix:
 Charge =  0 Multiplicity = 1

                         Standard orientation:
 ---------------------------------------------------------------------
 Center     Atomic      Atomic             Coordinates (Angstroms)
 Number     Number       Type             X           Y           Z
 ---------------------------------------------------------------------
      1         12           0       28.660293    0.503284   -0.230999
      2          6           0       26.829131   -2.241666    1.064694
      3          6           0       26.035154    2.490382    0.598279
      4          6           0       30.717933    3.169375   -0.697320
      5          6           0       31.405139   -1.594109   -0.512971
      6          7           0       26.742575    0.061346    0.879682
      7          6           0       26.126056   -1.109908    1.232033
      8          6           0       24.745554   -0.885759    1.726927
      9          6           0       24.422888    0.604672    1.239914
     10          6           0       25.788676    1.096261    0.901133
     11          6           0       23.448457    0.621436    0.073213
     12          6           0       24.755297   -1.148061    3.241102
     13          6           0       23.709562   -2.196289    3.811690
     14          1           0       22.720753   -1.814299    4.954076
     15          7           0       28.460993    2.552944   -0.132387
     16          6           0       27.236462    3.173970    0.150221
     17          6           0       27.392272    4.575480   -0.099663
     18          6           0       28.759211    4.837190   -0.452662
     19          6           0       29.358113    3.476910   -0.511801
     20          6           0       26.206394    5.524847    0.013426
     21          6           0       29.429585    6.161337   -0.743333
     22          8           0       28.624902    7.137052   -0.774037
     23          6           0       30.945640    6.471999   -0.894597
     24          7           0       30.796366    0.780984   -0.574658
     25          6           0       31.388208    1.980501   -0.766470
     26          6           0       32.922002    1.878381   -0.978043
     27          6           0       33.117094    0.323692   -1.028586
     28          6           0       31.661792   -0.204922   -0.621700
     29          6           0       33.310077    2.597915   -2.257344
     30          6           0       34.159503   -0.223637   -0.101987
     31          6           0       35.364716   -0.785757   -0.805839
     32          7           0       29.060205   -1.472234   -0.008983
     33          6           0       30.204100   -2.257993   -0.198329
     34          6           0       29.923494   -3.600863   -0.134812
     35          6           0       28.591639   -3.651475    0.324776
     36          6           0       28.145033   -2.338784    0.458235
     37          6           0       30.868907   -4.680338   -0.617800
     38          6           0       27.473039   -4.582962    0.629088
     39          8           0       27.443235   -5.772760    0.566034
     40          6           0       26.357204   -3.623913    1.192482
     41          6           0       25.035726   -4.113709    0.641630
     42          8           0       24.200017   -4.746701    1.286887
     43          8           0       24.877084   -3.694922   -0.701761
     44          6           0       23.560673   -4.035780   -1.240381
     45          1           0       25.131523    3.101668    0.650647
     46          1           0       31.393360    3.989543   -0.951822
     47          1           0       32.255309   -2.262406   -0.365436
     48          1           0       24.070515   -1.598442    1.252938
     49          1           0       23.964121    1.140352    2.070558
     50          1           0       23.604960   -0.195877   -0.629442
     51          1           0       23.632578    1.522849   -0.512251
     52          1           0       22.402075    0.668623    0.374722
     53          1           0       24.587215   -0.189223    3.731273
     54          1           0       25.736583   -1.410205    3.636657
     55          1           0       24.395491   -2.953919    4.191520
     56          1           0       23.215965   -2.729044    2.999749
     57          1           0       25.688152    5.393585    0.963332
     58          1           0       25.519666    5.244957   -0.785337
     59          1           0       26.416834    6.595164    0.024556
     60          1           0       31.203052    5.991384   -1.837906
     61          1           0       31.478090    6.013326   -0.061319
     62          1           0       31.157025    7.541604   -0.886223
     63          1           0       33.511974    2.329183   -0.180438
     64          1           0       33.235683   -0.001692   -2.061786
     65          1           0       32.873815    3.596239   -2.219774
     66          1           0       32.893212    2.042405   -3.098035
     67          1           0       34.359433    2.649361   -2.545225
     68          1           0       33.806959   -1.052078    0.512427
     69          1           0       34.555195    0.459231    0.649566
     70          1           0       36.248263   -0.297995   -0.395946
     71          1           0       35.385127   -0.542903   -1.868245
     72          1           0       35.442988   -1.872521   -0.760501
     73          1           0       30.258840   -5.574049   -0.752843
     74          1           0       31.662909   -4.886499    0.099551
     75          1           0       31.280380   -4.289891   -1.548308
     76          1           0       26.316001   -3.922915    2.240498
     77          1           0       23.279318   -3.339424   -2.030450
     78          1           0       22.774956   -3.869293   -0.504840
     79          1           0       23.492124   -5.069575   -1.580125
     80         12           0      -28.742708    0.376303    0.196275
     81          6           0      -27.213935   -2.195149   -1.422855
     82          6           0      -28.371085    2.412497   -2.551943
     83          6           0      -30.116407    2.895210    1.993168
     84          6           0      -28.672331   -1.582842    3.137117
     85          7           0      -27.681561    0.193287   -1.699682
     86          6           0      -27.440943   -1.033817   -2.233882
     87          6           0      -27.239678   -1.009063   -3.711176
     88          6           0      -27.377551    0.579482   -3.972977
     89          6           0      -27.843500    1.124848   -2.663012
     90          6           0      -26.006050    1.249045   -4.438488
     91          6           0      -28.417094   -1.839085   -4.406587
     92          6           0      -28.152150   -2.392396   -5.808466
     93          1           0      -26.973772   -1.954427   -6.713513
     94          7           0      -29.292548    2.354144   -0.204001
     95          6           0      -29.022957    3.014357   -1.413929
     96          6           0      -29.510998    4.366788   -1.274476
     97          6           0      -30.044817    4.510801    0.022312
     98          6           0      -29.864503    3.198061    0.626813
     99          6           0      -29.454158    5.363145   -2.455939
    100          6           0      -30.624642    5.856380    0.707761
    101          8           0      -31.201842    5.853185    1.802427
    102          6           0      -30.556676    7.236147    0.074233
    103          7           0      -29.380506    0.572732    2.306871
    104          6           0      -29.876056    1.747530    2.763889
    105          6           0      -29.974185    1.756595    4.288495
    106          6           0      -29.817550    0.165565    4.635729
    107          6           0      -29.357342   -0.388102    3.278055
    108          6           0      -29.003954    2.771012    5.050220
    109          6           0      -31.174537   -0.629101    4.991620
    110          6           0      -31.232367   -1.508199    6.227336
    111          7           0      -28.145293   -1.527600    0.813598
    112          6           0      -28.155736   -2.178209    1.990210
    113          6           0      -27.663171   -3.578412    1.799353
    114          6           0      -27.339971   -3.601165    0.421859
    115          6           0      -27.543028   -2.287361   -0.066653
    116          6           0      -27.561613   -4.716803    2.751879
    117          6           0      -26.835926   -4.486813   -0.559676
    118          8           0      -26.494380   -5.683811   -0.467395
    119          6           0      -26.724635   -3.614916   -1.807845
    120          6           0      -25.342660   -3.577114   -2.228434
    121          8           0      -24.356802   -3.265520   -1.636729
    122          8           0      -25.343099   -3.882522   -3.586217
    123          6           0      -24.076412   -3.884158   -4.413790
    124          1           0      -28.493374    3.036117   -3.439530
    125          1           0      -30.468498    3.739417    2.590238
    126          1           0      -28.440452   -2.167221    4.029295
    127          1           0      -26.320768   -1.374868   -4.168888
    128          1           0      -28.122217    0.791411   -4.740195
    129          1           0      -26.093085    2.054572   -5.167265
    130          1           0      -25.311049    0.465008   -4.738697
    131          1           0      -25.575363    1.710154   -3.549079
    132          1           0      -29.335681   -1.255173   -4.467634
    133          1           0      -28.610700   -2.673318   -3.731815
    134          1           0      -29.078823   -2.236848   -6.362349
    135          1           0      -28.076004   -3.477071   -5.742631
    136          1           0      -29.073547    4.937199   -3.384180
    137          1           0      -28.840456    6.200524   -2.125529
    138          1           0      -30.465511    5.744089   -2.599750
    139          1           0      -31.241794    7.179829   -0.770856
    140          1           0      -29.624694    7.402387   -0.466391
    141          1           0      -30.645483    8.010092    0.836340
    142          1           0      -30.995397    2.035712    4.550686
    143          1           0      -29.116482    0.012834    5.456499
    144          1           0      -28.352652    2.246473    5.749737
    145          1           0      -29.588943    3.527903    5.571474
    146          1           0      -28.323218    3.252136    4.347520
    147          1           0      -31.538525   -1.209448    4.143920
    148          1           0      -31.947228    0.131682    5.098156
    149          1           0      -31.513307   -2.503297    5.884198
    150          1           0      -31.919624   -1.133205    6.985218
    151          1           0      -30.231616   -1.615060    6.648216
    152          1           0      -27.969280   -4.523163    3.743918
    153          1           0      -26.521106   -5.005115    2.903522
    154          1           0      -28.095460   -5.566569    2.326902
    155          1           0      -27.332436   -3.993190   -2.630303
    156          1           0      -23.227087   -3.566920   -3.808335
    157          1           0      -24.166365   -3.155517   -5.220562
    158          1           0      -23.962680   -4.909713   -4.764976
 ---------------------------------------------------------------------

 SCF Done:  E(RPBE1PBE) =  -4067.37487734     A.U. after   16 cycles

 Excitation energies and oscillator strengths:

 Excited State   1:      Singlet-A      1.8478 eV  671.00 nm  f=0.0000  <S**2>=0.000
     312 -> 313        0.70711
 This state for optimization and/or second-order correction.
 Total Energy, E(TD-HF/TD-DFT) =  -4067.30697340
 Copying the excited state density for this state as the 1-particle RhoCI density.

 Excited State   2:      Singlet-A      1.8485 eV  670.73 nm  f=0.3401  <S**2>=0.000
     309 -> 315       -0.16641
     311 -> 313        0.69423
     311 <- 313       -0.11258

 Excited State   3:      Singlet-A      1.8923 eV  655.20 nm  f=0.3862  <S**2>=0.000
     310 -> 316       -0.18639
     312 -> 314        0.68963
     312 <- 314       -0.10198

 Excited State   4:      Singlet-A      2.1922 eV  565.57 nm  f=0.0000  <S**2>=0.000
     311 -> 314        0.70711

 Excited State   5:      Singlet-A      2.2346 eV  554.85 nm  f=0.1013  <S**2>=0.000
     310 -> 314        0.65139
     312 -> 316        0.26686

 The electronic state is 1-A.
 Alpha  occ. eigenvalues --  -46.92773 -46.92420 -19.26293 -19.24323 -19.21268
 Alpha  occ. eigenvalues --  -19.20104 -19.19717 -19.19494 -19.18941 -19.18527
 Alpha  occ. eigenvalues --  -14.41998 -14.41933 -14.41690 -14.41141 -14.39712
 Alpha  occ. eigenvalues --  -14.39227 -14.38951 -14.38735 -10.37423 -10.35574
 Alpha  occ. eigenvalues --  -10.33494 -10.32842 -10.32683 -10.31515 -10.29690
 Alpha  occ. eigenvalues --  -10.29397 -10.29093 -10.28917 -10.28905 -10.28541
 Alpha  occ. eigenvalues --  -10.28442 -10.28338 -10.28307 -10.28289 -10.28288
 Alpha  occ. eigenvalues --  -10.27993 -10.27716 -10.27604 -10.27492 -10.26798
 Alpha  occ. eigenvalues --  -10.26657 -10.26508 -10.26383 -10.26334 -10.26322
 Alpha  occ. eigenvalues --  -10.26193 -10.26190 -10.26131 -10.26130 -10.26119
 Alpha  occ. eigenvalues --  -10.26045 -10.26034 -10.26023 -10.25997 -10.25972
 Alpha  occ. eigenvalues --  -10.25829 -10.25825 -10.25674 -10.25537 -10.25440
 Alpha  occ. eigenvalues --  -10.25342 -10.25307 -10.25081 -10.25074 -10.25046
 Alpha  occ. eigenvalues --  -10.24899 -10.24677 -10.24651 -10.24628 -10.24355
 Alpha  occ. eigenvalues --  -10.24063 -10.24008 -10.23969 -10.23966 -10.23775
 Alpha  occ. eigenvalues --  -10.23759 -10.23695 -10.23584 -10.23573 -10.23560
 Alpha  occ. eigenvalues --  -10.23534 -10.22907 -10.22811 -10.22775 -10.22626
 Alpha  occ. eigenvalues --  -10.22370  -3.14765  -3.14562  -1.87626  -1.87383
 Alpha  occ. eigenvalues --   -1.87121  -1.86999  -1.86942  -1.86790  -1.10349
 Alpha  occ. eigenvalues --   -1.10311  -1.06861  -1.04319  -1.02959  -1.02807
 Alpha  occ. eigenvalues --   -1.02320  -1.01984  -1.00194  -0.99887  -0.99098
 Alpha  occ. eigenvalues --   -0.98958  -0.98292  -0.98001  -0.97413  -0.97278
 Alpha  occ. eigenvalues --   -0.87809  -0.87702  -0.84207  -0.83644  -0.83371
 Alpha  occ. eigenvalues --   -0.82946  -0.82503  -0.82199  -0.81837  -0.81424
 Alpha  occ. eigenvalues --   -0.81333  -0.81185  -0.80522  -0.80246  -0.79110
 Alpha  occ. eigenvalues --   -0.78644  -0.78624  -0.77736  -0.76944  -0.76621
 Alpha  occ. eigenvalues --   -0.76108  -0.75816  -0.75447  -0.75025  -0.74839
 Alpha  occ. eigenvalues --   -0.74665  -0.72751  -0.72153  -0.71801  -0.71759
 Alpha  occ. eigenvalues --   -0.71377  -0.71194  -0.70809  -0.70473  -0.69878
 Alpha  occ. eigenvalues --   -0.69550  -0.67998  -0.67023  -0.66682  -0.66443
 Alpha  occ. eigenvalues --   -0.63790  -0.63716  -0.63386  -0.63001  -0.62614
 Alpha  occ. eigenvalues --   -0.62130  -0.61691  -0.60705  -0.60434  -0.60163
 Alpha  occ. eigenvalues --   -0.59952  -0.59711  -0.59660  -0.59511  -0.59066
 Alpha  occ. eigenvalues --   -0.58802  -0.57692  -0.56319  -0.55087  -0.55068
 Alpha  occ. eigenvalues --   -0.54637  -0.54452  -0.54221  -0.53791  -0.53653
 Alpha  occ. eigenvalues --   -0.53376  -0.52884  -0.52727  -0.52308  -0.51391
 Alpha  occ. eigenvalues --   -0.50842  -0.50657  -0.50349  -0.50221  -0.50146
 Alpha  occ. eigenvalues --   -0.49795  -0.49441  -0.48990  -0.48650  -0.48460
 Alpha  occ. eigenvalues --   -0.48328  -0.48238  -0.47819  -0.47688  -0.47494
 Alpha  occ. eigenvalues --   -0.47400  -0.47339  -0.46846  -0.46715  -0.46627
 Alpha  occ. eigenvalues --   -0.46526  -0.46231  -0.46211  -0.46146  -0.45980
 Alpha  occ. eigenvalues --   -0.45741  -0.45531  -0.45373  -0.45159  -0.45116
 Alpha  occ. eigenvalues --   -0.44844  -0.44683  -0.44507  -0.44455  -0.44285
 Alpha  occ. eigenvalues --   -0.44193  -0.44046  -0.43713  -0.43596  -0.43537
 Alpha  occ. eigenvalues --   -0.43307  -0.43010  -0.42935  -0.42784  -0.42658
 Alpha  occ. eigenvalues --   -0.42597  -0.42430  -0.42302  -0.41945  -0.41896
 Alpha  occ. eigenvalues --   -0.41639  -0.41612  -0.41335  -0.41284  -0.41179
 Alpha  occ. eigenvalues --   -0.41161  -0.40946  -0.40863  -0.40830  -0.40660
 Alpha  occ. eigenvalues --   -0.40486  -0.40351  -0.40216  -0.40090  -0.39953
 Alpha  occ. eigenvalues --   -0.39885  -0.39687  -0.39430  -0.39147  -0.39023
 Alpha  occ. eigenvalues --   -0.38954  -0.38773  -0.38744  -0.38686  -0.38530
 Alpha  occ. eigenvalues --   -0.38495  -0.38147  -0.38069  -0.37577  -0.37510
 Alpha  occ. eigenvalues --   -0.37328  -0.37273  -0.37221  -0.37133  -0.36912
 Alpha  occ. eigenvalues --   -0.36644  -0.36573  -0.36468  -0.36412  -0.36219
 Alpha  occ. eigenvalues --   -0.36154  -0.36019  -0.35978  -0.35897  -0.35665
 Alpha  occ. eigenvalues --   -0.35082  -0.35061  -0.34681  -0.34335  -0.34056
 Alpha  occ. eigenvalues --   -0.33769  -0.33400  -0.33207  -0.32795  -0.32776
 Alpha  occ. eigenvalues --   -0.32555  -0.32396  -0.32205  -0.31830  -0.31587
 Alpha  occ. eigenvalues --   -0.31461  -0.31029  -0.30306  -0.29862  -0.29417
 Alpha  occ. eigenvalues --   -0.29334  -0.28861  -0.28669  -0.27429  -0.26805
 Alpha  occ. eigenvalues --   -0.26167  -0.26104  -0.25993  -0.25678  -0.25676
 Alpha  occ. eigenvalues --   -0.25494  -0.25474  -0.25107  -0.21385  -0.20787
 Alpha  occ. eigenvalues --   -0.19282  -0.18772
 Alpha virt. eigenvalues --   -0.11751  -0.10996  -0.05374  -0.05185  -0.04195
 Alpha virt. eigenvalues --   -0.03989  -0.02121  -0.02120  -0.00960  -0.00474
 Alpha virt. eigenvalues --   -0.00087   0.00714   0.00779   0.01355   0.01389

 Mulliken charges:
               1
     1  Mg  12.000000
     2  C    6.000000
     3  C    6.000000
     4  C    6.000000
     5  C    6.000000
     6  N    7.000000
     7  C    6.000000
     8  C    6.000000
     9  C    6.000000
    10  C    6.000000
    11  C    6.000000
    12  C    6.000000
    13  C    6.000000
    14  H    1.000000
    15  N    7.000000
    16  C    6.000000
    17  C    6.000000
    18  C    6.000000
    19  C    6.000000
    20  C    6.000000
    21  C    6.000000
    22  O    8.000000
    23  C    6.000000
    24  N    7.000000
    25  C    6.000000
    26  C    6.000000
    27  C    6.000000
    28  C    6.000000
    29  C    6.000000
    30  C    6.000000
    31  C    6.000000
    32  N    7.000000
    33  C    6.000000
    34  C    6.000000
    35  C    6.000000
    36  C    6.000000
    37  C    6.000000
    38  C    6.000000
    39  O    8.000000
    40  C    6.000000
    41  C    6.000000
    42  O    8.000000
    43  O    8.000000
    44  C    6.000000
    45  H    1.000000
    46  H    1.000000
    47  H    1.000000
    48  H    1.000000
    49  H    1.000000
    50  H    1.000000
    51  H    1.000000
    52  H    1.000000
    53  H    1.000000
    54  H    1.000000
    55  H    1.000000
    56  H    1.000000
    57  H    1.000000
    58  H    1.000000
    59  H    1.000000
    60  H    1.000000
    61  H    1.000000
    62  H    1.000000
    63  H    1.000000
    64  H    1.000000
    65  H    1.000000
    66  H    1.000000
    67  H    1.000000
    68  H    1.000000
    69  H    1.000000
    70  H    1.000000
    71  H    1.000000
    72  H    1.000000
    73  H    1.000000
    74  H    1.000000
    75  H    1.000000
    76  H    1.000000
    77  H    1.000000
    78  H    1.000000
    79  H    1.000000
    80  Mg  12.000000
    81  C    6.000000
    82  C    6.000000
    83  C    6.000000
    84  C    6.000000
    85  N    7.000000
    86  C    6.000000
    87  C    6.000000
    88  C    6.000000
    89  C    6.000000
    90  C    6.000000
    91  C    6.000000
    92  C    6.000000
    93  H    1.000000
    94  N    7.000000
    95  C    6.000000
    96  C    6.000000
    97  C    6.000000
    98  C    6.000000
    99  C    6.000000
   100  C    6.000000
   101  O    8.000000
   102  C    6.000000
   103  N    7.000000
   104  C    6.000000
   105  C    6.000000
   106  C    6.000000
   107  C    6.000000
   108  C    6.000000
   109  C    6.000000
   110  C    6.000000
   111  N    7.000000
   112  C    6.000000
   113  C    6.000000
   114  C    6.000000
   115  C    6.000000
   116  C    6.000000
   117  C    6.000000
   118  O    8.000000
   119  C    6.000000
   120  C    6.000000
   121  O    8.000000
   122  O    8.000000
   123  C    6.000000
   124  H    1.000000
   125  H    1.000000
   126  H    1.000000
   127  H    1.000000
   128  H    1.000000
   129  H    1.000000
   130  H    1.000000
   131  H    1.000000
   132  H    1.000000
   133  H    1.000000
   134  H    1.000000
   135  H    1.000000
   136  H    1.000000
   137  H    1.000000
   138  H    1.000000
   139  H    1.000000
   140  H    1.000000
   141  H    1.000000
   142  H    1.000000
   143  H    1.000000
   144  H    1.000000
   145  H    1.000000
   146  H    1.000000
   147  H    1.000000
   148  H    1.000000
   149  H    1.000000
   150  H    1.000000
   151  H    1.000000
   152  H    1.000000
   153  H    1.000000
   154  H    1.000000
   155  H    1.000000
   156  H    1.000000
   157  H    1.000000
   158  H    1.000000
 Sum of Mulliken charges = 624.00000

 Dipole moment (field-independent basis, Debye):
    X=             -0.0000    Y=              0.0000    Z=              0.0000  Tot=              0.0000
 Quadrupole moment (field-independent basis, Debye-Ang):
   XX=             -0.0000   YY=              0.0000   ZZ=             -0.0000
   XY=              0.0000   XZ=             -0.0000   YZ=             -0.0000

 Normal termination of Gaussian 16 at Thu Oct 14 23:00:34 2021.
