 Gaussian 16, Revision A.03,
 Gaussian 16:  ES64L-G16RevA.03 25-Dec-2016

 --------------------------------------------------------
 #p PBE1PBE/Def2SVP td=(nstates=5) density=(transition=1)
 --------------------------------------------------------

 --------------------------------
 TDDFT excited states in gaussian
 --------------------------------
 Symbolic Z-matrix:
 Charge =  0 Multiplicity = 1

                         Standard orientation:
 ---------------------------------------------------------------------
 Center     Atomic      Atomic             Coordinates (Angstroms)
 Number     Number       Type             X           Y           Z
 ---------------------------------------------------------------------
      1         12           0      -25.871994    0.264919   -0.162046
      2          6           0      -22.941611   -1.375292    0.583898
      3          6           0      -27.463352   -1.132088    2.529303
      4          6           0      -28.781923    2.096932   -0.830967
      5          6           0      -24.178329    2.346091   -2.336081
      6          7           0      -25.125496   -0.941166    1.477889
      7          6           0      -23.939122   -1.677974    1.530022
      8          6           0      -23.864987   -2.530478    2.799279
      9          6           0      -25.360737   -2.511434    3.204726
     10          6           0      -26.054529   -1.384696    2.412109
     11          6           0      -26.031940   -3.899130    3.110526
     12          6           0      -22.921423   -1.923140    3.856250
     13          6           0      -21.984067   -2.918583    4.623190
     14          1           0      -21.643053   -2.553139    6.014983
     15          7           0      -27.812650    0.399091    0.685629
     16          6           0      -28.300517   -0.315689    1.725291
     17          6           0      -29.720771   -0.197110    1.867514
     18          6           0      -30.160980    0.629137    0.820450
     19          6           0      -28.881096    1.076755    0.130186
     20          6           0      -30.557491   -0.986663    2.876242
     21          6           0      -31.641969    1.046213    0.499562
     22          8           0      -32.549699    0.683227    1.290744
     23          6           0      -32.073461    1.830495   -0.813582
     24          7           0      -26.337676    2.176822   -1.188961
     25          6           0      -27.603283    2.600020   -1.425290
     26          6           0      -27.674859    3.684498   -2.469478
     27          6           0      -26.208854    3.820332   -2.934407
     28          6           0      -25.525315    2.698518   -2.148472
     29          6           0      -28.714572    3.426292   -3.609991
     30          6           0      -25.619606    5.299025   -2.747536
     31          6           0      -25.483694    6.102413   -4.046161
     32          7           0      -23.974289    0.443586   -0.821956
     33          6           0      -23.379922    1.323609   -1.753005
     34          6           0      -22.022417    0.855834   -2.062696
     35          6           0      -21.864757   -0.235023   -1.219182
     36          6           0      -23.020189   -0.338551   -0.427258
     37          6           0      -21.013347    1.399488   -3.009722
     38          6           0      -20.908257   -1.271008   -0.804053
     39          8           0      -19.844207   -1.664721   -1.309461
     40          6           0      -21.589816   -2.090760    0.363841
     41          6           0      -21.765561   -3.555166   -0.015018
     42          8           0      -22.189738   -4.012881   -1.080831
     43          8           0      -21.279659   -4.223797    1.069102
     44          6           0      -21.150117   -5.665370    0.937857
     45          1           0      -27.983566   -1.575620    3.380730
     46          1           0      -29.636816    2.673676   -1.190254
     47          1           0      -23.586506    2.959870   -3.018087
     48          1           0      -23.487059   -3.522799    2.550936
     49          1           0      -25.328768   -2.236257    4.258890
     50          1           0      -25.413988   -4.796884    3.125551
     51          1           0      -26.511845   -3.923478    2.132277
     52          1           0      -26.771987   -4.052979    3.895518
     53          1           0      -23.442886   -1.296416    4.579199
     54          1           0      -22.358249   -1.158704    3.320380
     55          1           0      -21.055757   -3.031737    4.063313
     56          1           0      -22.496702   -3.877827    4.707516
     57          1           0      -31.293795   -1.528636    2.283189
     58          1           0      -30.876930   -0.328077    3.684000
     59          1           0      -29.870922   -1.738567    3.265195
     60          1           0      -31.923523    2.887184   -0.595286
     61          1           0      -33.135044    1.626791   -0.951796
     62          1           0      -31.568269    1.335329   -1.643296
     63          1           0      -27.990559    4.603702   -1.975855
     64          1           0      -25.988469    3.485027   -3.947598
     65          1           0      -28.291690    3.633489   -4.592633
     66          1           0      -29.613789    4.032708   -3.503042
     67          1           0      -29.084919    2.405275   -3.527745
     68          1           0      -24.607286    5.296037   -2.343639
     69          1           0      -26.203273    5.841758   -2.004061
     70          1           0      -25.756271    7.142200   -3.864616
     71          1           0      -26.145730    5.687618   -4.805957
     72          1           0      -24.480298    6.089543   -4.471357
     73          1           0      -21.491822    2.203752   -3.568615
     74          1           0      -20.516354    0.582493   -3.533182
     75          1           0      -20.278022    1.918862   -2.394255
     76          1           0      -21.043786   -2.007370    1.303898
     77          1           0      -22.013861   -6.147020    0.477774
     78          1           0      -20.930631   -6.228337    1.845027
     79          1           0      -20.288590   -5.900302    0.312290
     80         12           0       26.068218    0.519115    0.136902
     81          6           0       23.174517   -1.136788   -1.110717
     82          6           0       27.964934   -2.103195   -1.024365
     83          6           0       28.629873    2.170191    1.413912
     84          6           0       23.927698    2.926020    1.731991
     85          7           0       25.611405   -1.502543   -0.920961
     86          6           0       24.356104   -1.843690   -1.390162
     87          6           0       24.538005   -3.182834   -2.183682
     88          6           0       26.119107   -3.534209   -2.123317
     89          6           0       26.585542   -2.327798   -1.302160
     90          6           0       26.484927   -4.927786   -1.571410
     91          6           0       23.886644   -3.260261   -3.626084
     92          6           0       22.883094   -4.358055   -3.828534
     93          1           0       22.903323   -5.658489   -3.069415
     94          7           0       28.132254    0.133808    0.075430
     95          6           0       28.687912   -0.996334   -0.436252
     96          6           0       30.111660   -0.779490   -0.414502
     97          6           0       30.330497    0.377372    0.364217
     98          6           0       29.002108    0.982915    0.704863
     99          6           0       31.059492   -1.830670   -1.016245
    100          6           0       31.639626    0.872454    0.900178
    101          8           0       31.700646    1.850067    1.682993
    102          6           0       32.889203    0.156160    0.543920
    103          7           0       26.189052    2.294087    1.468455
    104          6           0       27.343653    2.783657    1.759748
    105          6           0       27.363536    4.180413    2.581847
    106          6           0       25.845510    4.390987    2.688653
    107          6           0       25.284484    3.197149    1.955589
    108          6           0       28.113479    3.976545    3.949020
    109          6           0       25.275925    5.740893    2.126867
    110          6           0       25.250451    5.893913    0.587496
    111          7           0       24.051651    0.753077    0.381272
    112          6           0       23.358347    1.769622    1.079544
    113          6           0       21.921545    1.580500    0.837557
    114          6           0       21.807865    0.460600   -0.020791
    115          6           0       23.141420    0.012504   -0.308119
    116          6           0       20.783632    2.485749    1.397276
    117          6           0       20.879643   -0.292531   -0.682404
    118          8           0       19.665824   -0.266882   -0.695659
    119          6           0       21.679494   -1.351630   -1.491246
    120          6           0       21.169041   -2.661715   -1.159221
    121          8           0       21.567610   -3.356681   -0.217766
    122          8           0       20.011955   -2.919548   -1.903884
    123          6           0       19.294167   -4.156675   -1.508431
    124          1           0       28.633865   -2.962186   -1.113165
    125          1           0       29.466774    2.607959    1.962159
    126          1           0       23.232832    3.631828    2.191724
    127          1           0       23.884192   -3.807772   -1.576715
    128          1           0       26.510658   -3.560508   -3.139251
    129          1           0       27.094336   -5.478546   -2.289061
    130          1           0       25.657824   -5.565156   -1.259200
    131          1           0       27.072030   -4.707346   -0.679881
    132          1           0       24.666147   -3.350003   -4.382925
    133          1           0       23.339685   -2.324645   -3.742782
    134          1           0       23.109919   -4.803654   -4.797739
    135          1           0       21.889544   -3.915541   -3.766166
    136          1           0       30.539994   -2.517061   -1.685288
    137          1           0       31.534927   -2.396426   -0.216035
    138          1           0       31.794214   -1.246361   -1.569268
    139          1           0       32.958326    0.164651   -0.543870
    140          1           0       32.850489   -0.889257    0.852429
    141          1           0       33.744257    0.598163    1.053819
    142          1           0       27.826555    4.977325    1.999390
    143          1           0       25.522324    4.193373    3.710966
    144          1           0       27.974298    2.938765    4.251781
    145          1           0       27.628230    4.603628    4.697783
    146          1           0       29.181947    4.190845    3.983913
    147          1           0       25.736505    6.580324    2.646792
    148          1           0       24.252006    5.835352    2.487131
    149          1           0       26.044328    5.396555    0.031282
    150          1           0       25.184072    6.957371    0.355047
    151          1           0       24.287740    5.484039    0.282455
    152          1           0       20.076638    2.807696    0.632609
    153          1           0       21.152148    3.356220    1.938853
    154          1           0       20.084019    1.866195    1.958907
    155          1           0       21.422926   -1.081134   -2.514977
    156          1           0       18.841399   -4.038951   -0.524260
    157          1           0       19.928161   -5.038366   -1.422078
    158          1           0       18.646492   -4.414931   -2.346415
 ---------------------------------------------------------------------

 SCF Done:  E(RPBE1PBE) =  -4067.39248888     A.U. after   16 cycles

 Excitation energies and oscillator strengths:

 Excited State   1:      Singlet-A      1.8385 eV  674.37 nm  f=0.3622  <S**2>=0.000
     309 -> 315       -0.16805
     312 -> 313        0.69263
     312 <- 313       -0.10467
 This state for optimization and/or second-order correction.
 Total Energy, E(TD-HF/TD-DFT) =  -4067.32492418
 Copying the excited state density for this state as the 1-particle RhoCI density.

 Excited State   2:      Singlet-A      1.8677 eV  663.84 nm  f=0.3560  <S**2>=0.000
     310 -> 316       -0.18707
     311 -> 314        0.68771

 Excited State   3:      Singlet-A      2.0160 eV  615.00 nm  f=0.0000  <S**2>=0.000
     312 -> 314        0.70711

 Excited State   4:      Singlet-A      2.0302 eV  610.69 nm  f=0.0000  <S**2>=0.000
     311 -> 313        0.70711

 Excited State   5:      Singlet-A      2.2069 eV  561.81 nm  f=0.1034  <S**2>=0.000
     310 -> 314        0.65388
     311 -> 316        0.25871

 The electronic state is 1-A.
 Alpha  occ. eigenvalues --  -46.93191 -46.92567 -19.27064 -19.24994 -19.20566
 Alpha  occ. eigenvalues --  -19.19688 -19.19587 -19.18898 -19.18685 -19.18123
 Alpha  occ. eigenvalues --  -14.42050 -14.41986 -14.41628 -14.41421 -14.39709
 Alpha  occ. eigenvalues --  -14.39521 -14.39287 -14.38875 -10.37038 -10.35670
 Alpha  occ. eigenvalues --  -10.33688 -10.32103 -10.31875 -10.30674 -10.29709
 Alpha  occ. eigenvalues --  -10.29422 -10.29291 -10.29158 -10.29007 -10.29002
 Alpha  occ. eigenvalues --  -10.28998 -10.28793 -10.28716 -10.28465 -10.28218
 Alpha  occ. eigenvalues --  -10.28158 -10.28070 -10.28061 -10.27792 -10.27708
 Alpha  occ. eigenvalues --  -10.26746 -10.26607 -10.26564 -10.26365 -10.26337
 Alpha  occ. eigenvalues --  -10.26157 -10.26115 -10.25985 -10.25964 -10.25956
 Alpha  occ. eigenvalues --  -10.25943 -10.25920 -10.25852 -10.25799 -10.25741
 Alpha  occ. eigenvalues --  -10.25711 -10.25694 -10.25495 -10.25463 -10.25439
 Alpha  occ. eigenvalues --  -10.25298 -10.25295 -10.25241 -10.25123 -10.25003
 Alpha  occ. eigenvalues --  -10.24926 -10.24875 -10.24800 -10.24698 -10.24625
 Alpha  occ. eigenvalues --  -10.24607 -10.24549 -10.24209 -10.24206 -10.24177
 Alpha  occ. eigenvalues --  -10.23750 -10.23664 -10.23574 -10.23514 -10.23447
 Alpha  occ. eigenvalues --  -10.23401 -10.23377 -10.23329 -10.23226 -10.22596
 Alpha  occ. eigenvalues --  -10.22004  -3.15114  -3.14678  -1.87969  -1.87523
 Alpha  occ. eigenvalues --   -1.87484  -1.87293  -1.87039  -1.86931  -1.11673
 Alpha  occ. eigenvalues --   -1.09154  -1.04307  -1.03244  -1.03124  -1.02857
 Alpha  occ. eigenvalues --   -1.02658  -1.01190  -1.00732  -0.99413  -0.98723
 Alpha  occ. eigenvalues --   -0.98178  -0.98006  -0.97586  -0.96732  -0.96590
 Alpha  occ. eigenvalues --   -0.86860  -0.85864  -0.84056  -0.83166  -0.83089
 Alpha  occ. eigenvalues --   -0.82959  -0.82374  -0.82035  -0.81761  -0.81391
 Alpha  occ. eigenvalues --   -0.81243  -0.81103  -0.80571  -0.79925  -0.78564
 Alpha  occ. eigenvalues --   -0.78549  -0.78211  -0.77689  -0.76833  -0.76779
 Alpha  occ. eigenvalues --   -0.76208  -0.75779  -0.75308  -0.75027  -0.74514
 Alpha  occ. eigenvalues --   -0.74387  -0.72432  -0.72321  -0.71879  -0.71716
 Alpha  occ. eigenvalues --   -0.70973  -0.70776  -0.70232  -0.70092  -0.69605
 Alpha  occ. eigenvalues --   -0.69312  -0.67196  -0.67068  -0.66138  -0.65985
 Alpha  occ. eigenvalues --   -0.64782  -0.63534  -0.63532  -0.63359  -0.62333
 Alpha  occ. eigenvalues --   -0.62258  -0.61562  -0.61216  -0.60562  -0.59787
 Alpha  occ. eigenvalues --   -0.59661  -0.59422  -0.59421  -0.59120  -0.59112
 Alpha  occ. eigenvalues --   -0.58776  -0.57325  -0.56085  -0.54589  -0.54484
 Alpha  occ. eigenvalues --   -0.54176  -0.54115  -0.53540  -0.53257  -0.53190
 Alpha  occ. eigenvalues --   -0.52704  -0.52447  -0.52335  -0.52121  -0.51758
 Alpha  occ. eigenvalues --   -0.50826  -0.50554  -0.50496  -0.50409  -0.49861
 Alpha  occ. eigenvalues --   -0.49800  -0.49566  -0.49430  -0.48399  -0.48160
 Alpha  occ. eigenvalues --   -0.47942  -0.47838  -0.47640  -0.47549  -0.47302
 Alpha  occ. eigenvalues --   -0.47270  -0.47196  -0.46967  -0.46592  -0.46591
 Alpha  occ. eigenvalues --   -0.46133  -0.46103  -0.45892  -0.45817  -0.45733
 Alpha  occ. eigenvalues --   -0.45545  -0.45500  -0.45464  -0.44823  -0.44577
 Alpha  occ. eigenvalues --   -0.44455  -0.44102  -0.44101  -0.43958  -0.43834
 Alpha  occ. eigenvalues --   -0.43758  -0.43670  -0.43517  -0.43341  -0.43207
 Alpha  occ. eigenvalues --   -0.43198  -0.42845  -0.42758  -0.42648  -0.42498
 Alpha  occ. eigenvalues --   -0.42487  -0.42233  -0.42179  -0.42105  -0.42006
 Alpha  occ. eigenvalues --   -0.41977  -0.41499  -0.41427  -0.41319  -0.41288
 Alpha  occ. eigenvalues --   -0.41223  -0.41144  -0.40887  -0.40689  -0.40599
 Alpha  occ. eigenvalues --   -0.40375  -0.40277  -0.40058  -0.39788  -0.39528
 Alpha  occ. eigenvalues --   -0.39467  -0.39181  -0.39108  -0.38734  -0.38675
 Alpha  occ. eigenvalues --   -0.38649  -0.38559  -0.38469  -0.38284  -0.38166
 Alpha  occ. eigenvalues --   -0.38055  -0.37983  -0.37710  -0.37637  -0.37384
 Alpha  occ. eigenvalues --   -0.37312  -0.37199  -0.37123  -0.36979  -0.36752
 Alpha  occ. eigenvalues --   -0.36751  -0.36677  -0.36504  -0.36491  -0.36186
 Alpha  occ. eigenvalues --   -0.36069  -0.36059  -0.35957  -0.35745  -0.35537
 Alpha  occ. eigenvalues --   -0.35496  -0.35021  -0.34661  -0.34656  -0.34234
 Alpha  occ. eigenvalues --   -0.34054  -0.33642  -0.33359  -0.33103  -0.32368
 Alpha  occ. eigenvalues --   -0.31928  -0.31911  -0.31699  -0.31490  -0.31460
 Alpha  occ. eigenvalues --   -0.31065  -0.30561  -0.30041  -0.29743  -0.29127
 Alpha  occ. eigenvalues --   -0.28665  -0.28658  -0.28449  -0.26948  -0.26851
 Alpha  occ. eigenvalues --   -0.26249  -0.25760  -0.25748  -0.25617  -0.25604
 Alpha  occ. eigenvalues --   -0.25497  -0.25389  -0.25176  -0.21076  -0.20705
 Alpha  occ. eigenvalues --   -0.18833  -0.18718
 Alpha virt. eigenvalues --   -0.11114  -0.11054  -0.05525  -0.05260  -0.04029
 Alpha virt. eigenvalues --   -0.03985  -0.02485  -0.02065  -0.01107  -0.00164
 Alpha virt. eigenvalues --    0.00246   0.00374   0.00701   0.01484   0.02568

 Mulliken charges:
               1
     1  Mg  11.998982
     2  C    6.026983
     3  C    5.990828
     4  C    5.975613
     5  C    5.999455
     6  N    7.015743
     7  C    5.965532
     8  C    6.007382
     9  C    5.991580
    10  C    6.030281
    11  C    5.997056
    12  C    5.999612
    13  C    6.001337
    14  H    0.996259
    15  N    6.995538
    16  C    6.032805
    17  C    6.020246
    18  C    6.012233
    19  C    6.037344
    20  C    5.998259
    21  C    6.011081
    22  O    8.020705
    23  C    6.001985
    24  N    6.993139
    25  C    6.034644
    26  C    5.989233
    27  C    6.007811
    28  C    5.968536
    29  C    5.999340
    30  C    6.003087
    31  C    6.000553
    32  N    6.999989
    33  C    5.964362
    34  C    5.975989
    35  C    5.996714
    36  C    5.973512
    37  C    6.001731
    38  C    5.982629
    39  O    7.969784
    40  C    5.999494
    41  C    5.994645
    42  O    7.997539
    43  O    7.998463
    44  C    6.001584
    45  H    1.010242
    46  H    1.005369
    47  H    0.987235
    48  H    1.001788
    49  H    1.005007
    50  H    1.012683
    51  H    1.000770
    52  H    0.999213
    53  H    0.991687
    54  H    1.007262
    55  H    1.004732
    56  H    0.996159
    57  H    1.013704
    58  H    1.016170
    59  H    1.014847
    60  H    1.009902
    61  H    1.010600
    62  H    1.008271
    63  H    1.000775
    64  H    1.002426
    65  H    1.009554
    66  H    0.997626
    67  H    0.996617
    68  H    1.003100
    69  H    0.988977
    70  H    0.994726
    71  H    0.994759
    72  H    1.002010
    73  H    0.985309
    74  H    0.984970
    75  H    0.981649
    76  H    0.992632
    77  H    0.995141
    78  H    0.994926
    79  H    0.999543
    80  Mg  11.999992
    81  C    5.999751
    82  C    6.000274
    83  C    5.999999
    84  C    5.999760
    85  N    6.999940
    86  C    6.000409
    87  C    5.999900
    88  C    6.000228
    89  C    5.999505
    90  C    6.000007
    91  C    5.999997
    92  C    5.999967
    93  H    1.000063
    94  N    7.000193
    95  C    5.999425
    96  C    5.999718
    97  C    5.999795
    98  C    5.999639
    99  C    6.000035
   100  C    5.999785
   101  O    7.999599
   102  C    6.000067
   103  N    6.999855
   104  C    5.999653
   105  C    6.000102
   106  C    5.999881
   107  C    6.000549
   108  C    6.000058
   109  C    5.999943
   110  C    5.999954
   111  N    7.000005
   112  C    6.000562
   113  C    6.000370
   114  C    6.000019
   115  C    6.000410
   116  C    5.999929
   117  C    6.000271
   118  O    8.000461
   119  C    6.000013
   120  C    6.000065
   121  O    8.000118
   122  O    8.000007
   123  C    5.999957
   124  H    0.999917
   125  H    0.999852
   126  H    1.000117
   127  H    0.999971
   128  H    0.999934
   129  H    0.999949
   130  H    0.999867
   131  H    1.000029
   132  H    1.000095
   133  H    0.999935
   134  H    1.000052
   135  H    0.999967
   136  H    0.999772
   137  H    0.999731
   138  H    0.999779
   139  H    0.999891
   140  H    0.999887
   141  H    0.999763
   142  H    0.999976
   143  H    1.000020
   144  H    0.999999
   145  H    0.999839
   146  H    1.000024
   147  H    1.000104
   148  H    0.999977
   149  H    1.000142
   150  H    1.000062
   151  H    0.999911
   152  H    1.000306
   153  H    1.000249
   154  H    1.000284
   155  H    1.000137
   156  H    1.000041
   157  H    1.000068
   158  H    1.000120
 Sum of Mulliken charges = 624.00000

 Dipole moment (field-independent basis, Debye):
    X=             -9.3770    Y=             -0.7069    Z=              3.9332  Tot=             10.1930
 Quadrupole moment (field-independent basis, Debye-Ang):
   XX=            470.8011   YY=             -4.3355   ZZ=             -0.6509
   XY=             17.5860   XZ=            -99.8106   YZ=              1.7675

 Normal termination of Gaussian 16 at Fri Oct 15 15:46:46 2021.
