 Gaussian 16, Revision A.03,
 Gaussian 16:  ES64L-G16RevA.03 25-Dec-2016

 --------------------------------------------------------
 #p PBE1PBE/Def2SVP td=(nstates=5) density=(transition=1)
 --------------------------------------------------------

 --------------------------------
 TDDFT excited states in gaussian
 --------------------------------
 Symbolic Z-matrix:
 Charge =  0 Multiplicity = 1

                         Standard orientation:
 ---------------------------------------------------------------------
 Center     Atomic      Atomic             Coordinates (Angstroms)
 Number     Number       Type             X           Y           Z
 ---------------------------------------------------------------------
      1         12           0      -31.076343    0.330173    0.442531
      2          6           0      -28.505145   -1.924204   -0.634359
      3          6           0      -33.140267   -1.080529   -1.932690
      4          6           0      -33.156137    2.785142    1.010675
      5          6           0      -28.736659    1.711173    2.594077
      6          7           0      -30.743863   -1.179399   -1.345188
      7          6           0      -29.651302   -1.998628   -1.436245
      8          6           0      -29.964593   -3.173872   -2.400636
      9          6           0      -31.447864   -2.877722   -2.877617
     10          6           0      -31.851918   -1.613058   -2.035398
     11          6           0      -31.690358   -2.607269   -4.422041
     12          6           0      -29.838770   -4.590203   -1.778554
     13          6           0      -29.140072   -5.636675   -2.571507
     14          1           0      -28.908707   -5.539859   -4.127876
     15          7           0      -32.950325    0.837000   -0.361721
     16          6           0      -33.721710    0.072473   -1.236628
     17          6           0      -34.978854    0.792718   -1.515792
     18          6           0      -35.025323    1.874574   -0.554831
     19          6           0      -33.684407    1.879995    0.074763
     20          6           0      -36.011531    0.404560   -2.530251
     21          6           0      -36.147581    2.883403   -0.214769
     22          8           0      -36.200167    3.571937    0.826120
     23          6           0      -37.326785    2.913030   -1.101715
     24          7           0      -30.916413    1.978933    1.557508
     25          6           0      -31.942289    2.898330    1.563894
     26          6           0      -31.732005    3.965916    2.673161
     27          6           0      -30.460105    3.368719    3.423176
     28          6           0      -30.001005    2.266906    2.483939
     29          6           0      -31.556457    5.476746    2.234022
     30          6           0      -30.675145    2.832410    4.829580
     31          6           0      -29.953393    3.602450    5.955272
     32          7           0      -29.103378   -0.120264    1.053570
     33          6           0      -28.275930    0.555546    1.918873
     34          6           0      -26.943116   -0.061589    1.923820
     35          6           0      -27.035752   -1.065460    0.976173
     36          6           0      -28.355579   -1.066975    0.472237
     37          6           0      -25.725888    0.330236    2.694622
     38          6           0      -26.269741   -2.105826    0.390024
     39          8           0      -25.113509   -2.551456    0.639150
     40          6           0      -27.141775   -2.685152   -0.641823
     41          6           0      -26.430870   -2.709977   -1.967870
     42          8           0      -26.177993   -1.760851   -2.628058
     43          8           0      -26.186722   -3.969685   -2.328417
     44          6           0      -25.262777   -4.229926   -3.379657
     45          1           0      -33.855145   -1.460539   -2.665711
     46          1           0      -33.763051    3.634630    1.333541
     47          1           0      -27.986358    2.201877    3.216237
     48          1           0      -29.252014   -3.081887   -3.221149
     49          1           0      -32.102133   -3.698318   -2.584783
     50          1           0      -30.834290   -2.796557   -5.069062
     51          1           0      -31.885479   -1.538829   -4.524940
     52          1           0      -32.566721   -3.154014   -4.771442
     53          1           0      -30.806061   -5.046154   -1.564260
     54          1           0      -29.289031   -4.589919   -0.837778
     55          1           0      -29.697296   -6.572333   -2.516143
     56          1           0      -28.162776   -5.788129   -2.114027
     57          1           0      -36.202341    1.248494   -3.192817
     58          1           0      -36.920925    0.185464   -1.970689
     59          1           0      -35.772972   -0.549717   -3.001012
     60          1           0      -36.986407    3.228247   -2.088112
     61          1           0      -37.958661    3.711056   -0.712609
     62          1           0      -37.909062    1.993995   -1.040961
     63          1           0      -32.595207    3.869852    3.332535
     64          1           0      -29.726756    4.172850    3.482954
     65          1           0      -31.622134    5.561858    1.149926
     66          1           0      -30.665023    5.944295    2.653919
     67          1           0      -32.366080    6.040297    2.698002
     68          1           0      -30.534233    1.760750    4.970963
     69          1           0      -31.734423    2.958278    5.051125
     70          1           0      -29.454925    3.007520    6.720314
     71          1           0      -30.732561    4.053714    6.570157
     72          1           0      -29.211861    4.328994    5.625816
     73          1           0      -25.956592    0.973033    3.544629
     74          1           0      -25.097473    0.985441    2.091553
     75          1           0      -25.173411   -0.589682    2.885588
     76          1           0      -27.350519   -3.703635   -0.315437
     77          1           0      -24.271159   -4.044729   -2.964341
     78          1           0      -25.365910   -3.497076   -4.180042
     79          1           0      -25.300110   -5.275218   -3.687516
     80         12           0       31.108197   -0.039862   -0.469387
     81          6           0       27.989134   -1.110951    0.557085
     82          6           0       29.544109    2.119375   -2.646919
     83          6           0       34.148872    1.445095   -1.059642
     84          6           0       32.593438   -2.145186    1.813782
     85          7           0       29.033029    0.586708   -0.839134
     86          6           0       27.926393   -0.065993   -0.332751
     87          6           0       26.625298    0.499203   -0.896237
     88          6           0       27.155622    1.280327   -2.155891
     89          6           0       28.641346    1.371599   -1.839848
     90          6           0       26.789827    0.689827   -3.592461
     91          6           0       25.747205    1.335674    0.088249
     92          6           0       24.264531    1.029257    0.069514
     93          1           0       23.450834    2.169598   -0.522366
     94          7           0       31.708282    1.550196   -1.665054
     95          6           0       30.943323    2.276328   -2.488010
     96          6           0       31.749335    3.219839   -3.243228
     97          6           0       33.079395    3.121353   -2.870132
     98          6           0       33.044008    2.047138   -1.787012
     99          6           0       31.110742    4.270929   -4.270592
    100          6           0       34.294910    3.888708   -3.491567
    101          8           0       34.070779    4.762359   -4.376502
    102          6           0       35.684804    3.656038   -3.036945
    103          7           0       33.134907   -0.143514    0.468855
    104          6           0       34.200628    0.416582   -0.055461
    105          6           0       35.492254   -0.203699    0.434834
    106          6           0       35.090623   -1.325749    1.451335
    107          6           0       33.505866   -1.291849    1.209546
    108          6           0       36.641667   -0.517111   -0.575527
    109          6           0       35.448458   -1.191402    2.959901
    110          6           0       35.371528   -2.507578    3.705656
    111          7           0       30.425491   -1.381782    0.945987
    112          6           0       31.162784   -2.259447    1.774096
    113          6           0       30.227871   -3.120029    2.446251
    114          6           0       28.941925   -2.745160    1.986324
    115          6           0       29.158548   -1.671938    1.126529
    116          6           0       30.562827   -4.356295    3.267396
    117          6           0       27.609092   -3.076768    2.099036
    118          8           0       26.966757   -3.824182    2.785218
    119          6           0       26.869136   -1.907339    1.263759
    120          6           0       26.361044   -0.952059    2.342570
    121          8           0       27.026419   -0.112164    2.917403
    122          8           0       25.022053   -1.249015    2.539260
    123          6           0       24.359143   -0.520513    3.616049
    124          1           0       29.126120    2.675079   -3.488709
    125          1           0       35.083724    1.952714   -1.305019
    126          1           0       32.926611   -2.953231    2.468370
    127          1           0       26.043764   -0.340310   -1.276102
    128          1           0       26.846902    2.318576   -2.028779
    129          1           0       27.587022    1.106275   -4.208118
    130          1           0       25.890216    1.116639   -4.036587
    131          1           0       26.722077   -0.394749   -3.676237
    132          1           0       25.921808    2.361496   -0.236894
    133          1           0       26.106312    1.429755    1.112879
    134          1           0       23.962745    0.831087    1.098239
    135          1           0       24.027386    0.149351   -0.528834
    136          1           0       30.022279    4.251101   -4.339410
    137          1           0       31.513249    4.118948   -5.272644
    138          1           0       31.256263    5.306964   -3.967878
    139          1           0       35.950655    2.612048   -3.199769
    140          1           0       35.852219    4.054003   -2.036011
    141          1           0       36.292801    4.139500   -3.800597
    142          1           0       36.066976    0.400829    1.136808
    143          1           0       35.280038   -2.327121    1.063993
    144          1           0       36.374015   -0.002712   -1.499517
    145          1           0       36.858805   -1.580687   -0.680815
    146          1           0       37.609622   -0.101472   -0.295142
    147          1           0       34.788934   -0.419760    3.356783
    148          1           0       36.446194   -0.752634    2.958995
    149          1           0       36.113646   -2.475061    4.503735
    150          1           0       35.580095   -3.395787    3.108086
    151          1           0       34.416347   -2.563381    4.227845
    152          1           0       29.696932   -4.971269    3.512782
    153          1           0       31.077177   -4.023252    4.167923
    154          1           0       31.265181   -5.002464    2.740715
    155          1           0       26.134588   -2.317827    0.570225
    156          1           0       24.796749   -0.808359    4.572093
    157          1           0       23.280030   -0.669695    3.602224
    158          1           0       24.564701    0.544548    3.512618
 ---------------------------------------------------------------------

 SCF Done:  E(RPBE1PBE) =  -4067.37036180     A.U. after   18 cycles

 Excitation energies and oscillator strengths:

 Excited State   1:      Singlet-A      1.8640 eV  665.15 nm  f=0.4061  <S**2>=0.000
     309 -> 316       -0.17338
     312 -> 313        0.69403
     312 <- 313       -0.11114
 This state for optimization and/or second-order correction.
 Total Energy, E(TD-HF/TD-DFT) =  -4067.30186063
 Copying the excited state density for this state as the 1-particle RhoCI density.

 Excited State   2:      Singlet-A      1.8858 eV  657.47 nm  f=0.3598  <S**2>=0.000
     310 -> 315        0.14501
     311 -> 314        0.69236

 Excited State   3:      Singlet-A      1.9997 eV  620.00 nm  f=0.0000  <S**2>=0.000
     311 -> 313        0.70711

 Excited State   4:      Singlet-A      2.0768 eV  597.00 nm  f=0.0000  <S**2>=0.000
     312 -> 314        0.70711

 Excited State   5:      Singlet-A      2.2041 eV  562.53 nm  f=0.1216  <S**2>=0.000
     309 -> 313        0.66066
     312 -> 316        0.24062

 The electronic state is 1-A.
 Alpha  occ. eigenvalues --  -46.92785 -46.92302 -19.25528 -19.25311 -19.20263
 Alpha  occ. eigenvalues --  -19.20067 -19.19728 -19.19022 -19.18986 -19.18464
 Alpha  occ. eigenvalues --  -14.41712 -14.41577 -14.41529 -14.41155 -14.39968
 Alpha  occ. eigenvalues --  -14.39337 -14.39217 -14.38409 -10.36290 -10.35906
 Alpha  occ. eigenvalues --  -10.33822 -10.32295 -10.31574 -10.30933 -10.30214
 Alpha  occ. eigenvalues --  -10.29675 -10.29256 -10.29002 -10.28879 -10.28631
 Alpha  occ. eigenvalues --  -10.28543 -10.28532 -10.28464 -10.28253 -10.28111
 Alpha  occ. eigenvalues --  -10.27954 -10.27838 -10.27579 -10.27473 -10.26857
 Alpha  occ. eigenvalues --  -10.26831 -10.26739 -10.26716 -10.26355 -10.26131
 Alpha  occ. eigenvalues --  -10.26114 -10.26087 -10.26074 -10.26042 -10.26008
 Alpha  occ. eigenvalues --  -10.25856 -10.25821 -10.25804 -10.25654 -10.25520
 Alpha  occ. eigenvalues --  -10.25418 -10.25395 -10.25315 -10.25285 -10.25255
 Alpha  occ. eigenvalues --  -10.25127 -10.25108 -10.24992 -10.24601 -10.24553
 Alpha  occ. eigenvalues --  -10.24546 -10.24525 -10.24518 -10.24496 -10.24446
 Alpha  occ. eigenvalues --  -10.24295 -10.24288 -10.24279 -10.23827 -10.23806
 Alpha  occ. eigenvalues --  -10.23684 -10.23618 -10.23442 -10.23433 -10.23333
 Alpha  occ. eigenvalues --  -10.23109 -10.23009 -10.22918 -10.22861 -10.22592
 Alpha  occ. eigenvalues --  -10.21432  -3.14807  -3.14458  -1.87630  -1.87281
 Alpha  occ. eigenvalues --   -1.87184  -1.87034  -1.86847  -1.86680  -1.13305
 Alpha  occ. eigenvalues --   -1.10357  -1.05026  -1.04422  -1.03475  -1.03217
 Alpha  occ. eigenvalues --   -1.02880  -1.02538  -0.99339  -0.99156  -0.98369
 Alpha  occ. eigenvalues --   -0.98361  -0.97890  -0.97236  -0.97202  -0.96533
 Alpha  occ. eigenvalues --   -0.87778  -0.86224  -0.83470  -0.83466  -0.82751
 Alpha  occ. eigenvalues --   -0.82733  -0.82693  -0.82168  -0.81893  -0.81370
 Alpha  occ. eigenvalues --   -0.81291  -0.80626  -0.80567  -0.80351  -0.78838
 Alpha  occ. eigenvalues --   -0.78641  -0.77925  -0.77799  -0.77224  -0.76867
 Alpha  occ. eigenvalues --   -0.76346  -0.76343  -0.76028  -0.75182  -0.74851
 Alpha  occ. eigenvalues --   -0.74591  -0.72680  -0.71997  -0.71974  -0.71453
 Alpha  occ. eigenvalues --   -0.71340  -0.70920  -0.70602  -0.69741  -0.69609
 Alpha  occ. eigenvalues --   -0.69473  -0.67543  -0.66933  -0.66106  -0.65968
 Alpha  occ. eigenvalues --   -0.64079  -0.63729  -0.63474  -0.63390  -0.62473
 Alpha  occ. eigenvalues --   -0.61866  -0.61602  -0.60762  -0.60359  -0.60016
 Alpha  occ. eigenvalues --   -0.59903  -0.59441  -0.59243  -0.59209  -0.58964
 Alpha  occ. eigenvalues --   -0.58701  -0.57512  -0.56388  -0.54736  -0.54478
 Alpha  occ. eigenvalues --   -0.54349  -0.54140  -0.53908  -0.53560  -0.53486
 Alpha  occ. eigenvalues --   -0.52982  -0.52796  -0.52519  -0.52366  -0.52058
 Alpha  occ. eigenvalues --   -0.50875  -0.50825  -0.50735  -0.50120  -0.49685
 Alpha  occ. eigenvalues --   -0.49643  -0.49499  -0.48711  -0.48332  -0.48323
 Alpha  occ. eigenvalues --   -0.48084  -0.48020  -0.47978  -0.47754  -0.47752
 Alpha  occ. eigenvalues --   -0.47634  -0.47309  -0.47206  -0.46965  -0.46598
 Alpha  occ. eigenvalues --   -0.46203  -0.46194  -0.46127  -0.45935  -0.45821
 Alpha  occ. eigenvalues --   -0.45699  -0.45465  -0.45217  -0.44749  -0.44739
 Alpha  occ. eigenvalues --   -0.44608  -0.44533  -0.44374  -0.44259  -0.43970
 Alpha  occ. eigenvalues --   -0.43878  -0.43736  -0.43709  -0.43402  -0.43370
 Alpha  occ. eigenvalues --   -0.43258  -0.43245  -0.42975  -0.42932  -0.42861
 Alpha  occ. eigenvalues --   -0.42402  -0.42250  -0.42099  -0.42009  -0.41596
 Alpha  occ. eigenvalues --   -0.41546  -0.41497  -0.41253  -0.41030  -0.40929
 Alpha  occ. eigenvalues --   -0.40895  -0.40811  -0.40615  -0.40591  -0.40445
 Alpha  occ. eigenvalues --   -0.40076  -0.40063  -0.40015  -0.39920  -0.39566
 Alpha  occ. eigenvalues --   -0.39539  -0.39433  -0.39272  -0.39092  -0.38869
 Alpha  occ. eigenvalues --   -0.38796  -0.38502  -0.38459  -0.38313  -0.38240
 Alpha  occ. eigenvalues --   -0.38007  -0.37848  -0.37602  -0.37494  -0.37422
 Alpha  occ. eigenvalues --   -0.37373  -0.37173  -0.37061  -0.36852  -0.36845
 Alpha  occ. eigenvalues --   -0.36598  -0.36503  -0.36448  -0.36297  -0.36123
 Alpha  occ. eigenvalues --   -0.35838  -0.35822  -0.35356  -0.35190  -0.35088
 Alpha  occ. eigenvalues --   -0.34953  -0.34888  -0.34635  -0.34181  -0.33942
 Alpha  occ. eigenvalues --   -0.33934  -0.33198  -0.33024  -0.32865  -0.32430
 Alpha  occ. eigenvalues --   -0.31989  -0.31538  -0.31409  -0.31369  -0.31241
 Alpha  occ. eigenvalues --   -0.30895  -0.30472  -0.29637  -0.29482  -0.29251
 Alpha  occ. eigenvalues --   -0.29249  -0.28691  -0.28492  -0.27210  -0.27091
 Alpha  occ. eigenvalues --   -0.26761  -0.26384  -0.26123  -0.26023  -0.25674
 Alpha  occ. eigenvalues --   -0.25319  -0.25297  -0.24924  -0.21005  -0.20858
 Alpha  occ. eigenvalues --   -0.18937  -0.18928
 Alpha virt. eigenvalues --   -0.11372  -0.11084  -0.05464  -0.05042  -0.04353
 Alpha virt. eigenvalues --   -0.03905  -0.02506  -0.02385  -0.00921  -0.00508
 Alpha virt. eigenvalues --    0.00898   0.01182   0.01272   0.01662   0.01740

 Mulliken charges:
               1
     1  Mg  12.000111
     2  C    5.980154
     3  C    6.003423
     4  C    6.027124
     5  C    5.996866
     6  N    6.993796
     7  C    6.028944
     8  C    5.990463
     9  C    6.005850
    10  C    5.974963
    11  C    6.002137
    12  C    5.997839
    13  C    5.999084
    14  H    1.004915
    15  N    7.003501
    16  C    5.960295
    17  C    5.980387
    18  C    5.986482
    19  C    5.966973
    20  C    6.002612
    21  C    5.984996
    22  O    7.970573
    23  C    6.007326
    24  N    7.007413
    25  C    5.963970
    26  C    6.012025
    27  C    5.991723
    28  C    6.027554
    29  C    5.999085
    30  C    5.991655
    31  C    5.998716
    32  N    6.997703
    33  C    6.030657
    34  C    6.034643
    35  C    5.999423
    36  C    6.029901
    37  C    5.997545
    38  C    6.017344
    39  O    8.029907
    40  C    5.994926
    41  C    6.005418
    42  O    8.004998
    43  O    8.001673
    44  C    5.998647
    45  H    0.990097
    46  H    0.995057
    47  H    1.011986
    48  H    0.999442
    49  H    0.998594
    50  H    0.988493
    51  H    1.003931
    52  H    0.999166
    53  H    1.008323
    54  H    0.992923
    55  H    1.003345
    56  H    0.995016
    57  H    0.982926
    58  H    0.982626
    59  H    0.983603
    60  H    0.992495
    61  H    0.985660
    62  H    0.992918
    63  H    1.000966
    64  H    1.001741
    65  H    1.003043
    66  H    0.990854
    67  H    1.000936
    68  H    0.998270
    69  H    1.013326
    70  H    0.999769
    71  H    1.006377
    72  H    1.000591
    73  H    1.017718
    74  H    1.021849
    75  H    1.014592
    76  H    1.009789
    77  H    0.999947
    78  H    1.004709
    79  H    1.005183
    80  Mg  12.000013
    81  C    6.000040
    82  C    5.999823
    83  C    5.999958
    84  C    6.000100
    85  N    7.000039
    86  C    5.999798
    87  C    6.000034
    88  C    5.999948
    89  C    6.000255
    90  C    5.999994
    91  C    6.000036
    92  C    6.000042
    93  H    0.999901
    94  N    6.999900
    95  C    6.000276
    96  C    6.000139
    97  C    6.000066
    98  C    6.000241
    99  C    6.000009
   100  C    6.000101
   101  O    8.000138
   102  C    5.999974
   103  N    7.000007
   104  C    6.000266
   105  C    5.999892
   106  C    6.000045
   107  C    5.999776
   108  C    5.999987
   109  C    6.000031
   110  C    6.000011
   111  N    7.000041
   112  C    5.999727
   113  C    5.999835
   114  C    5.999888
   115  C    5.999897
   116  C    5.999980
   117  C    5.999928
   118  O    7.999753
   119  C    5.999971
   120  C    6.000003
   121  O    7.999944
   122  O    7.999978
   123  C    6.000019
   124  H    1.000038
   125  H    1.000067
   126  H    0.999978
   127  H    0.999993
   128  H    0.999985
   129  H    0.999982
   130  H    1.000015
   131  H    1.000057
   132  H    0.999939
   133  H    1.000017
   134  H    1.000001
   135  H    0.999985
   136  H    1.000097
   137  H    1.000103
   138  H    1.000104
   139  H    1.000059
   140  H    1.000061
   141  H    1.000098
   142  H    1.000063
   143  H    1.000024
   144  H    0.999964
   145  H    1.000066
   146  H    1.000045
   147  H    0.999981
   148  H    0.999961
   149  H    0.999987
   150  H    0.999999
   151  H    1.000028
   152  H    0.999914
   153  H    0.999903
   154  H    0.999897
   155  H    0.999905
   156  H    0.999994
   157  H    0.999925
   158  H    0.999963
 Sum of Mulliken charges = 624.00000

 Dipole moment (field-independent basis, Debye):
    X=              9.9602    Y=             -1.9760    Z=              3.4351  Tot=             10.7196
 Quadrupole moment (field-independent basis, Debye-Ang):
   XX=           -612.6665   YY=             -1.2152   ZZ=              3.4469
   XY=             67.7279   XZ=           -108.1412   YZ=              2.2972

 Normal termination of Gaussian 16 at Fri Oct 15 10:29:59 2021.
