 Gaussian 16, Revision A.03,
 Gaussian 16:  ES64L-G16RevA.03 25-Dec-2016

 --------------------------------------------------------
 #p PBE1PBE/Def2SVP td=(nstates=5) density=(transition=1)
 --------------------------------------------------------

 --------------------------------
 TDDFT excited states in gaussian
 --------------------------------
 Symbolic Z-matrix:
 Charge =  0 Multiplicity = 1

                         Standard orientation:
 ---------------------------------------------------------------------
 Center     Atomic      Atomic             Coordinates (Angstroms)
 Number     Number       Type             X           Y           Z
 ---------------------------------------------------------------------
      1         12           0       25.185136   -0.280386   -0.374477
      2          6           0       21.853900   -0.397165    0.601367
      3          6           0       24.361695    2.342615   -2.610627
      4          6           0       28.395685    0.638016   -0.488789
      5          6           0       25.926230   -2.386307    2.353992
      6          7           0       23.307857    1.109173   -0.685995
      7          6           0       22.062219    0.641554   -0.342411
      8          6           0       20.976763    1.478002   -0.943838
      9          6           0       21.746710    2.175597   -2.157479
     10          6           0       23.256494    1.908916   -1.821006
     11          6           0       21.352363    1.660039   -3.632391
     12          6           0       20.298502    2.422291    0.176751
     13          6           0       18.935565    2.810231   -0.102747
     14          1           0       18.713683    4.337595   -0.097017
     15          7           0       26.269586    1.130604   -1.518582
     16          6           0       25.744390    2.123189   -2.392632
     17          6           0       26.871010    2.825524   -2.983515
     18          6           0       28.069940    2.341448   -2.405914
     19          6           0       27.615090    1.253253   -1.476582
     20          6           0       26.686867    3.976567   -3.900740
     21          6           0       29.510335    2.931931   -2.709109
     22          8           0       29.572816    3.858520   -3.515657
     23          6           0       30.785592    2.207345   -2.292253
     24          7           0       26.844218   -0.749683    0.849383
     25          6           0       28.074345   -0.311889    0.479269
     26          6           0       29.261622   -0.778100    1.530198
     27          6           0       28.482571   -1.936076    2.319987
     28          6           0       27.008847   -1.744908    1.840649
     29          6           0       30.578162   -1.341784    0.873228
     30          6           0       28.598370   -1.809745    3.840204
     31          6           0       29.201450   -2.955410    4.687895
     32          7           0       24.111199   -1.421355    0.970398
     33          6           0       24.544785   -2.238391    1.973816
     34          6           0       23.414366   -2.906260    2.557723
     35          6           0       22.308045   -2.127410    2.048480
     36          6           0       22.829974   -1.212916    1.117769
     37          6           0       23.449424   -3.921996    3.662848
     38          6           0       20.883664   -1.910789    2.193533
     39          8           0       20.061109   -2.567336    2.756327
     40          6           0       20.456984   -0.771379    1.188066
     41          6           0       19.523859   -1.232964    0.046991
     42          8           0       19.727280   -2.194107   -0.663212
     43          8           0       18.364469   -0.430397    0.030862
     44          6           0       17.314032   -0.832521   -0.855052
     45          1           0       24.033778    3.094127   -3.330760
     46          1           0       29.390550    1.052855   -0.314823
     47          1           0       26.202903   -3.047959    3.176869
     48          1           0       20.253057    0.881861   -1.500649
     49          1           0       21.556089    3.248074   -2.104000
     50          1           0       20.978537    2.542846   -4.150893
     51          1           0       20.608028    0.864472   -3.618840
     52          1           0       22.280792    1.323427   -4.094614
     53          1           0       20.927136    3.312530    0.166137
     54          1           0       20.499632    1.846440    1.080506
     55          1           0       18.326057    2.343189    0.669934
     56          1           0       18.648229    2.474988   -1.099279
     57          1           0       25.659008    4.047313   -4.256109
     58          1           0       27.271496    3.825600   -4.808563
     59          1           0       26.922335    4.919080   -3.405891
     60          1           0       30.930537    2.158560   -1.212575
     61          1           0       31.621893    2.719379   -2.769327
     62          1           0       30.740122    1.204613   -2.717331
     63          1           0       29.387361    0.098454    2.165172
     64          1           0       28.708469   -2.950009    1.989100
     65          1           0       31.405775   -0.659693    1.065747
     66          1           0       30.437071   -1.429059   -0.204739
     67          1           0       30.762526   -2.313896    1.331775
     68          1           0       27.652127   -1.512592    4.291769
     69          1           0       29.151667   -0.935798    4.183601
     70          1           0       28.525093   -3.510571    5.338416
     71          1           0       29.904971   -2.463645    5.360136
     72          1           0       29.699568   -3.693508    4.058103
     73          1           0       22.489361   -4.438540    3.649637
     74          1           0       23.333224   -3.516370    4.667375
     75          1           0       24.322007   -4.574686    3.662373
     76          1           0       19.905511   -0.080684    1.826583
     77          1           0       16.840823    0.132293   -1.040423
     78          1           0       16.545009   -1.409734   -0.342000
     79          1           0       17.712309   -1.380705   -1.707911
     80         12           0      -25.135730    0.358507    0.139871
     81          6           0      -22.025372   -1.180436   -0.362217
     82          6           0      -26.565825   -2.144200   -1.743076
     83          6           0      -28.047230    1.842647    0.600496
     84          6           0      -23.479802    2.909162    1.899064
     85          7           0      -24.342401   -1.468873   -0.829015
     86          6           0      -23.030041   -1.926703   -0.947833
     87          6           0      -22.932424   -3.413262   -1.471547
     88          6           0      -24.343247   -3.562474   -2.007290
     89          6           0      -25.165808   -2.310180   -1.491639
     90          6           0      -24.351277   -3.501457   -3.603370
     91          6           0      -22.740419   -4.276934   -0.146698
     92          6           0      -21.695727   -5.476476   -0.208467
     93          1           0      -21.687109   -6.070870   -1.593634
     94          7           0      -26.961067   -0.008270   -0.594680
     95          6           0      -27.365476   -1.037811   -1.333329
     96          6           0      -28.779608   -1.008368   -1.597985
     97          6           0      -29.280138    0.030447   -0.788347
     98          6           0      -28.056329    0.732570   -0.246439
     99          6           0      -29.527002   -1.948840   -2.470693
    100          6           0      -30.703651    0.380518   -0.406602
    101          8           0      -30.979947    1.160385    0.512022
    102          6           0      -31.871117   -0.154431   -1.240536
    103          7           0      -25.662158    2.180987    1.090444
    104          6           0      -26.999853    2.487551    1.174383
    105          6           0      -27.161244    3.694945    2.095536
    106          6           0      -25.677440    3.991064    2.634005
    107          6           0      -24.871515    2.951197    1.900860
    108          6           0      -27.905681    4.848900    1.335387
    109          6           0      -25.479838    3.993559    4.141770
    110          6           0      -24.779972    5.279886    4.681885
    111          7           0      -23.163932    0.793983    0.642117
    112          6           0      -22.623523    1.905474    1.361964
    113          6           0      -21.209517    1.806472    1.434551
    114          6           0      -20.949899    0.598410    0.765661
    115          6           0      -22.162695    0.072835    0.273789
    116          6           0      -20.200896    2.694033    2.089805
    117          6           0      -19.926493   -0.314534    0.367996
    118          8           0      -18.723707   -0.302133    0.485876
    119          6           0      -20.618012   -1.547651   -0.279305
    120          6           0      -19.928804   -1.871710   -1.554819
    121          8           0      -19.954422   -1.234284   -2.603849
    122          8           0      -19.305050   -3.039407   -1.370950
    123          6           0      -18.624799   -3.607165   -2.516056
    124          1           0      -27.162350   -2.937251   -2.198513
    125          1           0      -29.038839    2.289714    0.706639
    126          1           0      -22.931742    3.646024    2.490038
    127          1           0      -22.032649   -3.434440   -2.085633
    128          1           0      -24.796557   -4.476231   -1.624483
    129          1           0      -23.356476   -3.338350   -4.018410
    130          1           0      -25.002575   -2.683385   -3.910451
    131          1           0      -24.772575   -4.461804   -3.900797
    132          1           0      -23.660392   -4.748954    0.196915
    133          1           0      -22.466448   -3.569833    0.636713
    134          1           0      -22.052896   -6.325609    0.374319
    135          1           0      -20.762156   -5.220506    0.293225
    136          1           0      -30.162408   -2.542963   -1.812487
    137          1           0      -28.854944   -2.632762   -2.987171
    138          1           0      -30.148998   -1.449210   -3.212791
    139          1           0      -32.644173    0.553824   -0.943332
    140          1           0      -32.124847   -1.194487   -1.032207
    141          1           0      -31.812300   -0.029054   -2.321537
    142          1           0      -27.787498    3.538378    2.973779
    143          1           0      -25.365800    4.965295    2.257145
    144          1           0      -28.661581    5.216648    2.029363
    145          1           0      -28.329353    4.547476    0.377344
    146          1           0      -27.287508    5.745407    1.275142
    147          1           0      -24.934056    3.131415    4.523797
    148          1           0      -26.492119    4.088224    4.537277
    149          1           0      -24.657571    6.015153    3.886418
    150          1           0      -23.740697    5.090355    4.949609
    151          1           0      -25.349239    5.728834    5.496076
    152          1           0      -20.355629    2.448584    3.140842
    153          1           0      -20.431756    3.711260    1.774256
    154          1           0      -19.177149    2.414443    1.845070
    155          1           0      -20.365227   -2.358464    0.405211
    156          1           0      -17.928679   -2.879365   -2.933916
    157          1           0      -19.243733   -3.871572   -3.374106
    158          1           0      -18.080153   -4.474816   -2.143270
 ---------------------------------------------------------------------

 SCF Done:  E(RPBE1PBE) =  -4067.37226231     A.U. after   16 cycles

 Excitation energies and oscillator strengths:

 Excited State   1:      Singlet-A      1.8323 eV  676.66 nm  f=0.3851  <S**2>=0.000
     309 -> 316        0.16914
     311 -> 313        0.69532
     311 <- 313       -0.11106
 This state for optimization and/or second-order correction.
 Total Energy, E(TD-HF/TD-DFT) =  -4067.30492664
 Copying the excited state density for this state as the 1-particle RhoCI density.

 Excited State   2:      Singlet-A      1.8615 eV  666.06 nm  f=0.3630  <S**2>=0.000
     310 -> 315       -0.15508
     312 -> 314        0.69387
     312 <- 314       -0.10801

 Excited State   3:      Singlet-A      1.9454 eV  637.34 nm  f=0.0000  <S**2>=0.000
     312 -> 313        0.70711

 Excited State   4:      Singlet-A      2.0310 eV  610.46 nm  f=0.0000  <S**2>=0.000
     311 -> 314        0.70711

 Excited State   5:      Singlet-A      2.2475 eV  551.66 nm  f=0.1037  <S**2>=0.000
     309 -> 313        0.64691
     311 -> 316       -0.27103

 The electronic state is 1-A.
 Alpha  occ. eigenvalues --  -46.93169 -46.91150 -19.25958 -19.25797 -19.20947
 Alpha  occ. eigenvalues --  -19.19891 -19.19720 -19.19112 -19.18610 -19.17877
 Alpha  occ. eigenvalues --  -14.41758 -14.41687 -14.41632 -14.41118 -14.39726
 Alpha  occ. eigenvalues --  -14.39690 -14.38813 -14.38244 -10.37124 -10.35398
 Alpha  occ. eigenvalues --  -10.33381 -10.33122 -10.31284 -10.30501 -10.29423
 Alpha  occ. eigenvalues --  -10.29375 -10.29166 -10.28676 -10.28622 -10.28524
 Alpha  occ. eigenvalues --  -10.28443 -10.28424 -10.28397 -10.28386 -10.28377
 Alpha  occ. eigenvalues --  -10.28204 -10.28068 -10.27931 -10.27642 -10.27081
 Alpha  occ. eigenvalues --  -10.27008 -10.26542 -10.26537 -10.26345 -10.26274
 Alpha  occ. eigenvalues --  -10.26232 -10.26217 -10.26066 -10.26014 -10.25949
 Alpha  occ. eigenvalues --  -10.25846 -10.25664 -10.25610 -10.25575 -10.25467
 Alpha  occ. eigenvalues --  -10.25385 -10.25376 -10.25351 -10.25321 -10.25115
 Alpha  occ. eigenvalues --  -10.25047 -10.25013 -10.24971 -10.24812 -10.24413
 Alpha  occ. eigenvalues --  -10.24395 -10.24283 -10.24214 -10.24191 -10.24117
 Alpha  occ. eigenvalues --  -10.24109 -10.24104 -10.23922 -10.23897 -10.23887
 Alpha  occ. eigenvalues --  -10.23713 -10.23446 -10.23405 -10.23396 -10.23328
 Alpha  occ. eigenvalues --  -10.23319 -10.23170 -10.22926 -10.22682 -10.22597
 Alpha  occ. eigenvalues --  -10.21621  -3.15169  -3.13435  -1.87956  -1.87598
 Alpha  occ. eigenvalues --   -1.87357  -1.86288  -1.85790  -1.85690  -1.11961
 Alpha  occ. eigenvalues --   -1.10838  -1.05696  -1.04846  -1.04831  -1.04338
 Alpha  occ. eigenvalues --   -1.03570  -1.01968  -0.99796  -0.99438  -0.98731
 Alpha  occ. eigenvalues --   -0.97502  -0.97380  -0.96994  -0.96922  -0.96157
 Alpha  occ. eigenvalues --   -0.87152  -0.86668  -0.83824  -0.83505  -0.82678
 Alpha  occ. eigenvalues --   -0.82668  -0.82585  -0.82405  -0.82222  -0.81531
 Alpha  occ. eigenvalues --   -0.81162  -0.80929  -0.80785  -0.80063  -0.78290
 Alpha  occ. eigenvalues --   -0.78271  -0.77833  -0.77655  -0.76888  -0.76543
 Alpha  occ. eigenvalues --   -0.76347  -0.75970  -0.75532  -0.75466  -0.74666
 Alpha  occ. eigenvalues --   -0.74608  -0.73027  -0.72203  -0.71812  -0.71560
 Alpha  occ. eigenvalues --   -0.71109  -0.71002  -0.70468  -0.69930  -0.69297
 Alpha  occ. eigenvalues --   -0.69253  -0.67592  -0.67131  -0.65805  -0.65762
 Alpha  occ. eigenvalues --   -0.63597  -0.63459  -0.63234  -0.62914  -0.62053
 Alpha  occ. eigenvalues --   -0.61838  -0.61776  -0.60817  -0.60297  -0.59795
 Alpha  occ. eigenvalues --   -0.59707  -0.59551  -0.59322  -0.59082  -0.58858
 Alpha  occ. eigenvalues --   -0.58681  -0.57401  -0.57089  -0.55195  -0.54208
 Alpha  occ. eigenvalues --   -0.54178  -0.54056  -0.53699  -0.53529  -0.53209
 Alpha  occ. eigenvalues --   -0.53046  -0.52609  -0.52343  -0.52021  -0.51879
 Alpha  occ. eigenvalues --   -0.51159  -0.50824  -0.50204  -0.49938  -0.49855
 Alpha  occ. eigenvalues --   -0.49548  -0.49239  -0.49020  -0.48593  -0.48438
 Alpha  occ. eigenvalues --   -0.48030  -0.47838  -0.47431  -0.47322  -0.47201
 Alpha  occ. eigenvalues --   -0.47115  -0.47071  -0.46933  -0.46726  -0.46571
 Alpha  occ. eigenvalues --   -0.46397  -0.46284  -0.46171  -0.45955  -0.45639
 Alpha  occ. eigenvalues --   -0.45501  -0.45451  -0.45254  -0.45111  -0.44870
 Alpha  occ. eigenvalues --   -0.44756  -0.44555  -0.44473  -0.44260  -0.44237
 Alpha  occ. eigenvalues --   -0.44162  -0.43880  -0.43815  -0.43812  -0.43401
 Alpha  occ. eigenvalues --   -0.43287  -0.43110  -0.43044  -0.42853  -0.42671
 Alpha  occ. eigenvalues --   -0.42573  -0.42513  -0.42341  -0.42179  -0.42039
 Alpha  occ. eigenvalues --   -0.41881  -0.41659  -0.41548  -0.41519  -0.41326
 Alpha  occ. eigenvalues --   -0.41122  -0.41041  -0.40852  -0.40788  -0.40601
 Alpha  occ. eigenvalues --   -0.40383  -0.40049  -0.39943  -0.39885  -0.39724
 Alpha  occ. eigenvalues --   -0.39540  -0.39514  -0.39321  -0.39290  -0.39280
 Alpha  occ. eigenvalues --   -0.39056  -0.38816  -0.38656  -0.38539  -0.38431
 Alpha  occ. eigenvalues --   -0.38208  -0.38188  -0.37902  -0.37889  -0.37547
 Alpha  occ. eigenvalues --   -0.37546  -0.37447  -0.37423  -0.37295  -0.37247
 Alpha  occ. eigenvalues --   -0.37032  -0.36773  -0.36484  -0.36363  -0.35980
 Alpha  occ. eigenvalues --   -0.35946  -0.35864  -0.35649  -0.35364  -0.35321
 Alpha  occ. eigenvalues --   -0.34996  -0.34763  -0.34648  -0.33706  -0.33594
 Alpha  occ. eigenvalues --   -0.33280  -0.33131  -0.32732  -0.32640  -0.32403
 Alpha  occ. eigenvalues --   -0.32061  -0.31940  -0.31617  -0.31484  -0.31329
 Alpha  occ. eigenvalues --   -0.31233  -0.30669  -0.29756  -0.29463  -0.29391
 Alpha  occ. eigenvalues --   -0.29012  -0.28863  -0.28154  -0.27189  -0.26875
 Alpha  occ. eigenvalues --   -0.26454  -0.26375  -0.26176  -0.25573  -0.25290
 Alpha  occ. eigenvalues --   -0.25081  -0.24948  -0.24603  -0.21185  -0.21005
 Alpha  occ. eigenvalues --   -0.18781  -0.18670
 Alpha virt. eigenvalues --   -0.11255  -0.11052  -0.05310  -0.05139  -0.03752
 Alpha virt. eigenvalues --   -0.03527  -0.02301  -0.01609  -0.01429  -0.00103
 Alpha virt. eigenvalues --    0.00401   0.00560   0.01454   0.01693   0.01769

 Mulliken charges:
               1
     1  Mg  12.000343
     2  C    5.992764
     3  C    6.019493
     4  C    6.008058
     5  C    5.977644
     6  N    7.007291
     7  C    6.027688
     8  C    5.986562
     9  C    6.010478
    10  C    5.963211
    11  C    6.001283
    12  C    5.998734
    13  C    5.995653
    14  H    1.011423
    15  N    7.004880
    16  C    5.953146
    17  C    5.987828
    18  C    5.981144
    19  C    5.971170
    20  C    6.005626
    21  C    5.986534
    22  O    7.979180
    23  C    6.003342
    24  N    6.986240
    25  C    5.976330
    26  C    6.007886
    27  C    5.992729
    28  C    6.035603
    29  C    6.001533
    30  C    5.997750
    31  C    5.999215
    32  N    7.000373
    33  C    6.041313
    34  C    6.021190
    35  C    6.009294
    36  C    6.023505
    37  C    5.998856
    38  C    6.017532
    39  O    8.029094
    40  C    6.001504
    41  C    6.005309
    42  O    8.005569
    43  O    8.003031
    44  C    5.997370
    45  H    0.991292
    46  H    0.992217
    47  H    1.006659
    48  H    1.002668
    49  H    0.997152
    50  H    0.997502
    51  H    0.987261
    52  H    1.004581
    53  H    1.011282
    54  H    0.992032
    55  H    0.997190
    56  H    1.003887
    57  H    0.982428
    58  H    0.985048
    59  H    0.982684
    60  H    0.988490
    61  H    0.987625
    62  H    0.991911
    63  H    0.998269
    64  H    1.000613
    65  H    1.000364
    66  H    1.003683
    67  H    0.990202
    68  H    0.995194
    69  H    1.008113
    70  H    0.996598
    71  H    1.003830
    72  H    1.003060
    73  H    1.012099
    74  H    1.020885
    75  H    1.016938
    76  H    1.009542
    77  H    1.005986
    78  H    1.003091
    79  H    1.004919
    80  Mg  11.999967
    81  C    6.000125
    82  C    6.000078
    83  C    5.999882
    84  C    5.999957
    85  N    7.000224
    86  C    5.999694
    87  C    6.000017
    88  C    5.999996
    89  C    6.000223
    90  C    5.999980
    91  C    6.000015
    92  C    6.000028
    93  H    0.999946
    94  N    7.000021
    95  C    6.000216
    96  C    6.000348
    97  C    5.999981
    98  C    6.000337
    99  C    5.999981
   100  C    6.000125
   101  O    8.000359
   102  C    5.999924
   103  N    6.999930
   104  C    6.000360
   105  C    5.999868
   106  C    6.000114
   107  C    5.999642
   108  C    5.999949
   109  C    6.000057
   110  C    5.999999
   111  N    7.000038
   112  C    5.999600
   113  C    5.999801
   114  C    5.999907
   115  C    5.999723
   116  C    5.999965
   117  C    5.999765
   118  O    7.999671
   119  C    5.999988
   120  C    5.999944
   121  O    7.999982
   122  O    7.999953
   123  C    6.000054
   124  H    1.000109
   125  H    1.000025
   126  H    0.999892
   127  H    1.000024
   128  H    1.000009
   129  H    1.000129
   130  H    0.999954
   131  H    1.000032
   132  H    0.999885
   133  H    1.000072
   134  H    0.999945
   135  H    1.000003
   136  H    1.000183
   137  H    1.000176
   138  H    1.000192
   139  H    1.000169
   140  H    1.000101
   141  H    1.000102
   142  H    1.000021
   143  H    1.000003
   144  H    1.000046
   145  H    0.999941
   146  H    1.000116
   147  H    0.999998
   148  H    0.999898
   149  H    0.999993
   150  H    1.000018
   151  H    0.999959
   152  H    0.999821
   153  H    0.999865
   154  H    0.999853
   155  H    0.999911
   156  H    0.999969
   157  H    0.999945
   158  H    0.999906
 Sum of Mulliken charges = 624.00000

 Dipole moment (field-independent basis, Debye):
    X=             -6.5298    Y=             -5.7617    Z=              5.9158  Tot=             10.5277
 Quadrupole moment (field-independent basis, Debye-Ang):
   XX=           -313.2179   YY=             -0.2527   ZZ=             -2.3652
   XY=           -145.4429   XZ=            151.6956   YZ=              1.8670

 Normal termination of Gaussian 16 at Thu Oct 14 11:05:07 2021.
