 Gaussian 16, Revision A.03,
 Gaussian 16:  ES64L-G16RevA.03 25-Dec-2016

 --------------------------------------------------------
 #p PBE1PBE/Def2SVP td=(nstates=5) density=(transition=1)
 --------------------------------------------------------

 --------------------------------
 TDDFT excited states in gaussian
 --------------------------------
 Symbolic Z-matrix:
 Charge =  0 Multiplicity = 1

                         Standard orientation:
 ---------------------------------------------------------------------
 Center     Atomic      Atomic             Coordinates (Angstroms)
 Number     Number       Type             X           Y           Z
 ---------------------------------------------------------------------
      1         12           0       24.949256    0.325674   -0.392176
      2          6           0       23.473501   -1.580000    2.216418
      3          6           0       23.421302    3.131703    1.125577
      4          6           0       25.934292    2.144283   -2.915409
      5          6           0       26.090125   -2.627695   -1.831836
      6          7           0       23.564803    0.736693    1.494064
      7          6           0       23.225000   -0.227636    2.410959
      8          6           0       22.509270    0.331043    3.629128
      9          6           0       22.398638    1.848689    3.172231
     10          6           0       23.206590    1.938792    1.868479
     11          6           0       20.942369    2.302216    3.129718
     12          6           0       23.359765    0.131596    4.902865
     13          6           0       22.622443   -0.182891    6.260058
     14          1           0       21.123831    0.182312    6.376693
     15          7           0       24.783655    2.380304   -0.810330
     16          6           0       24.050251    3.332288   -0.101562
     17          6           0       24.208145    4.627979   -0.780950
     18          6           0       25.033846    4.360997   -1.921405
     19          6           0       25.305030    2.911650   -1.867815
     20          6           0       23.550075    5.828466   -0.351692
     21          6           0       25.523478    5.334980   -2.988351
     22          8           0       26.156905    4.934542   -3.977881
     23          6           0       25.411872    6.795222   -2.786970
     24          7           0       25.792304   -0.186760   -2.182710
     25          6           0       26.202978    0.767055   -3.022638
     26          6           0       26.853675    0.147413   -4.301902
     27          6           0       27.067833   -1.332998   -3.853065
     28          6           0       26.282970   -1.433304   -2.582776
     29          6           0       26.021606    0.357869   -5.617891
     30          6           0       28.615450   -1.461698   -3.581898
     31          6           0       29.186701   -1.243652   -2.138466
     32          7           0       24.926723   -1.679471    0.100159
     33          6           0       25.434187   -2.778583   -0.616179
     34          6           0       25.071332   -4.017476    0.115841
     35          6           0       24.274819   -3.576873    1.166296
     36          6           0       24.212659   -2.199529    1.182326
     37          6           0       25.288980   -5.319030   -0.491622
     38          6           0       23.401929   -4.088819    2.219870
     39          8           0       23.144332   -5.258102    2.482780
     40          6           0       22.805459   -2.797430    2.953600
     41          6           0       21.322934   -2.792541    2.910897
     42          8           0       20.623814   -2.230585    2.072710
     43          8           0       20.830718   -3.526267    4.006822
     44          6           0       19.414353   -3.744362    4.195682
     45          1           0       23.201595    4.066256    1.646716
     46          1           0       26.308689    2.696524   -3.780317
     47          1           0       26.536753   -3.475618   -2.354730
     48          1           0       21.526972   -0.116878    3.781531
     49          1           0       22.813948    2.435629    3.990995
     50          1           0       20.718369    3.185530    3.726753
     51          1           0       20.198141    1.555839    3.407574
     52          1           0       20.753671    2.631361    2.107013
     53          1           0       23.997121    0.997283    5.082643
     54          1           0       23.997048   -0.694156    4.584571
     55          1           0       23.061982    0.395732    7.071837
     56          1           0       22.930737   -1.195617    6.519710
     57          1           0       24.329185    6.585389   -0.259092
     58          1           0       22.867786    5.625887    0.473301
     59          1           0       22.871340    5.983024   -1.191054
     60          1           0       24.392468    7.171139   -2.879256
     61          1           0       25.986527    7.310384   -3.556462
     62          1           0       25.676831    7.005440   -1.751173
     63          1           0       27.748582    0.769011   -4.332139
     64          1           0       26.803173   -2.038847   -4.640761
     65          1           0       26.399767    1.222251   -6.163889
     66          1           0       24.974794    0.408284   -5.320061
     67          1           0       26.169129   -0.545423   -6.209602
     68          1           0       29.161693   -0.935510   -4.365000
     69          1           0       28.780047   -2.538360   -3.633789
     70          1           0       30.072465   -0.633037   -2.311188
     71          1           0       29.504315   -2.171155   -1.660321
     72          1           0       28.549695   -0.692298   -1.447696
     73          1           0       24.906223   -5.293109   -1.511082
     74          1           0       24.688317   -6.028705    0.078199
     75          1           0       26.312123   -5.658799   -0.333190
     76          1           0       23.134484   -2.924510    3.985421
     77          1           0       19.068650   -4.702556    3.808564
     78          1           0       18.838279   -2.852285    3.949373
     79          1           0       19.350997   -3.712220    5.283740
     80         12           0      -24.552562    0.592093    0.276668
     81          6           0      -23.298842   -2.428975   -0.927859
     82          6           0      -21.479841    2.047354   -0.293577
     83          6           0      -25.966289    3.352984    1.347722
     84          6           0      -27.909497   -0.749398   -0.185853
     85          7           0      -22.540451   -0.211295   -0.499608
     86          6           0      -22.264017   -1.466849   -0.963066
     87          6           0      -20.833076   -1.587580   -1.351100
     88          6           0      -20.261962   -0.123121   -1.183970
     89          6           0      -21.494271    0.678131   -0.608446
     90          6           0      -18.927832   -0.033147   -0.401124
     91          6           0      -20.638393   -2.119136   -2.791926
     92          6           0      -19.676142   -3.305614   -2.806043
     93          1           0      -18.462362   -3.235646   -3.781157
     94          7           0      -23.805409    2.448896    0.526633
     95          6           0      -22.500086    2.874859    0.285363
     96          6           0      -22.457273    4.262784    0.727250
     97          6           0      -23.769188    4.670794    1.255010
     98          6           0      -24.602457    3.433495    1.128412
     99          6           0      -21.320787    5.124646    0.487591
    100          6           0      -24.073713    6.065071    1.617639
    101          8           0      -23.268060    6.971477    1.581816
    102          6           0      -25.434291    6.550977    1.977622
    103          7           0      -26.571631    1.179466    0.482368
    104          6           0      -26.863134    2.295513    1.225014
    105          6           0      -28.362776    2.452827    1.362672
    106          6           0      -28.922047    1.419558    0.457800
    107          6           0      -27.768538    0.595770    0.163914
    108          6           0      -28.905061    2.451584    2.850537
    109          6           0      -29.418492    2.000404   -0.910618
    110          6           0      -30.519645    1.297537   -1.559646
    111          7           0      -25.480020   -1.228629   -0.386169
    112          6           0      -26.814083   -1.650817   -0.456405
    113          6           0      -26.844830   -3.064054   -0.667806
    114          6           0      -25.520708   -3.416834   -0.900131
    115          6           0      -24.706123   -2.237557   -0.755523
    116          6           0      -28.089082   -3.873012   -0.682572
    117          6           0      -24.671789   -4.481893   -1.260105
    118          8           0      -24.931338   -5.641472   -1.492574
    119          6           0      -23.231686   -3.922712   -1.239405
    120          6           0      -22.420473   -4.719781   -0.305556
    121          8           0      -22.328587   -4.528601    0.918784
    122          8           0      -21.900626   -5.810795   -0.963523
    123          6           0      -20.977256   -6.705420   -0.284698
    124          1           0      -20.466132    2.424253   -0.440872
    125          1           0      -26.573684    4.209052    1.651992
    126          1           0      -28.933034   -1.117094   -0.284193
    127          1           0      -20.371755   -2.103185   -0.508349
    128          1           0      -19.995318    0.350640   -2.128219
    129          1           0      -18.556077   -1.056819   -0.459942
    130          1           0      -18.978755    0.381087    0.605866
    131          1           0      -18.228101    0.608830   -0.935679
    132          1           0      -20.150356   -1.413257   -3.463727
    133          1           0      -21.631773   -2.383109   -3.154259
    134          1           0      -20.337699   -4.059984   -3.231660
    135          1           0      -19.420943   -3.526346   -1.770631
    136          1           0      -20.541647    4.528995    0.011462
    137          1           0      -20.827547    5.523355    1.374577
    138          1           0      -21.608609    5.916414   -0.204941
    139          1           0      -25.709921    5.774721    2.691476
    140          1           0      -26.064157    6.512509    1.088473
    141          1           0      -25.392378    7.533982    2.447212
    142          1           0      -28.536039    3.462883    0.993196
    143          1           0      -29.641343    0.713364    0.872659
    144          1           0      -28.078716    2.520978    3.558200
    145          1           0      -29.620572    1.660851    3.078806
    146          1           0      -29.416300    3.375107    3.120853
    147          1           0      -28.574238    2.069292   -1.596723
    148          1           0      -29.764428    3.026758   -0.789053
    149          1           0      -31.459907    1.690644   -1.171503
    150          1           0      -30.449753    0.216098   -1.438000
    151          1           0      -30.600822    1.623081   -2.597227
    152          1           0      -28.791932   -3.528676    0.075948
    153          1           0      -27.921183   -4.945528   -0.583196
    154          1           0      -28.554838   -3.605259   -1.631029
    155          1           0      -22.695058   -4.098850   -2.171758
    156          1           0      -21.358605   -7.377483    0.484139
    157          1           0      -20.142188   -6.130422    0.114963
    158          1           0      -20.648040   -7.385345   -1.069583
 ---------------------------------------------------------------------

 SCF Done:  E(RPBE1PBE) =  -4067.34916926     A.U. after   16 cycles

 Excitation energies and oscillator strengths:

 Excited State   1:      Singlet-A      1.7863 eV  694.07 nm  f=0.0000  <S**2>=0.000
     312 -> 313        0.70711
 This state for optimization and/or second-order correction.
 Total Energy, E(TD-HF/TD-DFT) =  -4067.28352247
 Copying the excited state density for this state as the 1-particle RhoCI density.

 Excited State   2:      Singlet-A      1.8373 eV  674.81 nm  f=0.3504  <S**2>=0.000
     309 -> 315       -0.18253
     311 -> 313        0.68986
     311 <- 313       -0.10421

 Excited State   3:      Singlet-A      1.8853 eV  657.62 nm  f=0.3653  <S**2>=0.000
     310 -> 316       -0.18507
     312 -> 314        0.68868
     312 <- 314       -0.10057

 Excited State   4:      Singlet-A      2.1967 eV  564.42 nm  f=0.0976  <S**2>=0.000
     309 -> 313        0.64583
     311 -> 315        0.27301

 Excited State   5:      Singlet-A      2.2506 eV  550.89 nm  f=0.0000  <S**2>=0.000
     311 -> 314        0.70711

 The electronic state is 1-A.
 Alpha  occ. eigenvalues --  -46.92316 -46.91911 -19.25511 -19.24650 -19.20079
 Alpha  occ. eigenvalues --  -19.19653 -19.19573 -19.18812 -19.18623 -19.17586
 Alpha  occ. eigenvalues --  -14.41827 -14.41446 -14.41438 -14.40979 -14.39916
 Alpha  occ. eigenvalues --  -14.39203 -14.38849 -14.38715 -10.36453 -10.36082
 Alpha  occ. eigenvalues --  -10.32634 -10.32254 -10.31348 -10.30801 -10.29321
 Alpha  occ. eigenvalues --  -10.29316 -10.29177 -10.28877 -10.28716 -10.28702
 Alpha  occ. eigenvalues --  -10.28685 -10.28548 -10.28400 -10.28243 -10.28107
 Alpha  occ. eigenvalues --  -10.28026 -10.27861 -10.27770 -10.27692 -10.27136
 Alpha  occ. eigenvalues --  -10.26829 -10.26748 -10.26536 -10.26488 -10.26395
 Alpha  occ. eigenvalues --  -10.26352 -10.26193 -10.26169 -10.26150 -10.26135
 Alpha  occ. eigenvalues --  -10.26022 -10.25800 -10.25745 -10.25676 -10.25475
 Alpha  occ. eigenvalues --  -10.25444 -10.25133 -10.25122 -10.25107 -10.25045
 Alpha  occ. eigenvalues --  -10.25019 -10.25011 -10.24976 -10.24925 -10.24781
 Alpha  occ. eigenvalues --  -10.24772 -10.24757 -10.24663 -10.24433 -10.24285
 Alpha  occ. eigenvalues --  -10.24254 -10.24126 -10.24098 -10.23938 -10.23690
 Alpha  occ. eigenvalues --  -10.23649 -10.23252 -10.23134 -10.22982 -10.22772
 Alpha  occ. eigenvalues --  -10.22729 -10.22695 -10.22566 -10.22508 -10.22471
 Alpha  occ. eigenvalues --  -10.22251  -3.14388  -3.14036  -1.87231  -1.86885
 Alpha  occ. eigenvalues --   -1.86771  -1.86601  -1.86424  -1.86245  -1.10197
 Alpha  occ. eigenvalues --   -1.09387  -1.04843  -1.04568  -1.04504  -1.03767
 Alpha  occ. eigenvalues --   -1.02053  -1.01489  -0.99589  -0.99279  -0.98594
 Alpha  occ. eigenvalues --   -0.98466  -0.97766  -0.97627  -0.96184  -0.96164
 Alpha  occ. eigenvalues --   -0.87018  -0.86377  -0.85107  -0.83955  -0.83850
 Alpha  occ. eigenvalues --   -0.83376  -0.82915  -0.82733  -0.82050  -0.81601
 Alpha  occ. eigenvalues --   -0.81591  -0.81117  -0.80633  -0.80550  -0.79524
 Alpha  occ. eigenvalues --   -0.78862  -0.78335  -0.77736  -0.77616  -0.76797
 Alpha  occ. eigenvalues --   -0.76681  -0.76254  -0.75731  -0.75190  -0.75154
 Alpha  occ. eigenvalues --   -0.74815  -0.73088  -0.73011  -0.72282  -0.71467
 Alpha  occ. eigenvalues --   -0.71410  -0.71200  -0.70618  -0.70088  -0.69738
 Alpha  occ. eigenvalues --   -0.69132  -0.67866  -0.66631  -0.66486  -0.65763
 Alpha  occ. eigenvalues --   -0.63798  -0.63653  -0.63472  -0.63204  -0.62357
 Alpha  occ. eigenvalues --   -0.62345  -0.61861  -0.61040  -0.60930  -0.60410
 Alpha  occ. eigenvalues --   -0.59808  -0.59345  -0.59272  -0.59192  -0.59001
 Alpha  occ. eigenvalues --   -0.58771  -0.56611  -0.56120  -0.55295  -0.54764
 Alpha  occ. eigenvalues --   -0.54073  -0.54007  -0.53928  -0.53633  -0.53576
 Alpha  occ. eigenvalues --   -0.52577  -0.52537  -0.52455  -0.51849  -0.51753
 Alpha  occ. eigenvalues --   -0.50987  -0.50823  -0.50386  -0.50071  -0.50037
 Alpha  occ. eigenvalues --   -0.49788  -0.49735  -0.49018  -0.48819  -0.48809
 Alpha  occ. eigenvalues --   -0.48427  -0.48189  -0.47901  -0.47807  -0.47707
 Alpha  occ. eigenvalues --   -0.47461  -0.47353  -0.47091  -0.46897  -0.46764
 Alpha  occ. eigenvalues --   -0.46484  -0.46333  -0.46325  -0.46274  -0.46164
 Alpha  occ. eigenvalues --   -0.45973  -0.45966  -0.45813  -0.45329  -0.45149
 Alpha  occ. eigenvalues --   -0.45010  -0.44647  -0.44462  -0.44311  -0.44192
 Alpha  occ. eigenvalues --   -0.44100  -0.44083  -0.43771  -0.43662  -0.43481
 Alpha  occ. eigenvalues --   -0.43455  -0.43222  -0.43114  -0.43100  -0.42978
 Alpha  occ. eigenvalues --   -0.42686  -0.42296  -0.42228  -0.42060  -0.41834
 Alpha  occ. eigenvalues --   -0.41720  -0.41634  -0.41493  -0.41275  -0.41271
 Alpha  occ. eigenvalues --   -0.41023  -0.40906  -0.40881  -0.40750  -0.40496
 Alpha  occ. eigenvalues --   -0.40199  -0.40080  -0.39747  -0.39727  -0.39398
 Alpha  occ. eigenvalues --   -0.39324  -0.39239  -0.39062  -0.38969  -0.38873
 Alpha  occ. eigenvalues --   -0.38805  -0.38756  -0.38516  -0.38479  -0.38227
 Alpha  occ. eigenvalues --   -0.38215  -0.38155  -0.38089  -0.37887  -0.37809
 Alpha  occ. eigenvalues --   -0.37751  -0.37509  -0.37411  -0.36955  -0.36807
 Alpha  occ. eigenvalues --   -0.36654  -0.36607  -0.36357  -0.36145  -0.36053
 Alpha  occ. eigenvalues --   -0.36052  -0.35912  -0.35583  -0.35413  -0.35206
 Alpha  occ. eigenvalues --   -0.35147  -0.34812  -0.34219  -0.34080  -0.33518
 Alpha  occ. eigenvalues --   -0.33450  -0.32710  -0.32675  -0.32419  -0.32311
 Alpha  occ. eigenvalues --   -0.32145  -0.32017  -0.31706  -0.31392  -0.31236
 Alpha  occ. eigenvalues --   -0.31036  -0.30733  -0.29526  -0.29286  -0.29070
 Alpha  occ. eigenvalues --   -0.28918  -0.28688  -0.28220  -0.27026  -0.26606
 Alpha  occ. eigenvalues --   -0.25852  -0.25774  -0.25690  -0.25671  -0.25481
 Alpha  occ. eigenvalues --   -0.25112  -0.25049  -0.24324  -0.21257  -0.20771
 Alpha  occ. eigenvalues --   -0.19218  -0.18443
 Alpha virt. eigenvalues --   -0.11610  -0.10680  -0.05964  -0.05165  -0.03981
 Alpha virt. eigenvalues --   -0.03943  -0.02186  -0.02043  -0.00183  -0.00044
 Alpha virt. eigenvalues --    0.00258   0.00539   0.00749   0.01084   0.01227

 Mulliken charges:
               1
     1  Mg  12.000000
     2  C    6.000000
     3  C    6.000000
     4  C    6.000000
     5  C    6.000000
     6  N    7.000000
     7  C    6.000000
     8  C    6.000000
     9  C    6.000000
    10  C    6.000000
    11  C    6.000000
    12  C    6.000000
    13  C    6.000000
    14  H    1.000000
    15  N    7.000000
    16  C    6.000000
    17  C    6.000000
    18  C    6.000000
    19  C    6.000000
    20  C    6.000000
    21  C    6.000000
    22  O    8.000000
    23  C    6.000000
    24  N    7.000000
    25  C    6.000000
    26  C    6.000000
    27  C    6.000000
    28  C    6.000000
    29  C    6.000000
    30  C    6.000000
    31  C    6.000000
    32  N    7.000000
    33  C    6.000000
    34  C    6.000000
    35  C    6.000000
    36  C    6.000000
    37  C    6.000000
    38  C    6.000000
    39  O    8.000000
    40  C    6.000000
    41  C    6.000000
    42  O    8.000000
    43  O    8.000000
    44  C    6.000000
    45  H    1.000000
    46  H    1.000000
    47  H    1.000000
    48  H    1.000000
    49  H    1.000000
    50  H    1.000000
    51  H    1.000000
    52  H    1.000000
    53  H    1.000000
    54  H    1.000000
    55  H    1.000000
    56  H    1.000000
    57  H    1.000000
    58  H    1.000000
    59  H    1.000000
    60  H    1.000000
    61  H    1.000000
    62  H    1.000000
    63  H    1.000000
    64  H    1.000000
    65  H    1.000000
    66  H    1.000000
    67  H    1.000000
    68  H    1.000000
    69  H    1.000000
    70  H    1.000000
    71  H    1.000000
    72  H    1.000000
    73  H    1.000000
    74  H    1.000000
    75  H    1.000000
    76  H    1.000000
    77  H    1.000000
    78  H    1.000000
    79  H    1.000000
    80  Mg  12.000000
    81  C    6.000000
    82  C    6.000000
    83  C    6.000000
    84  C    6.000000
    85  N    7.000000
    86  C    6.000000
    87  C    6.000000
    88  C    6.000000
    89  C    6.000000
    90  C    6.000000
    91  C    6.000000
    92  C    6.000000
    93  H    1.000000
    94  N    7.000000
    95  C    6.000000
    96  C    6.000000
    97  C    6.000000
    98  C    6.000000
    99  C    6.000000
   100  C    6.000000
   101  O    8.000000
   102  C    6.000000
   103  N    7.000000
   104  C    6.000000
   105  C    6.000000
   106  C    6.000000
   107  C    6.000000
   108  C    6.000000
   109  C    6.000000
   110  C    6.000000
   111  N    7.000000
   112  C    6.000000
   113  C    6.000000
   114  C    6.000000
   115  C    6.000000
   116  C    6.000000
   117  C    6.000000
   118  O    8.000000
   119  C    6.000000
   120  C    6.000000
   121  O    8.000000
   122  O    8.000000
   123  C    6.000000
   124  H    1.000000
   125  H    1.000000
   126  H    1.000000
   127  H    1.000000
   128  H    1.000000
   129  H    1.000000
   130  H    1.000000
   131  H    1.000000
   132  H    1.000000
   133  H    1.000000
   134  H    1.000000
   135  H    1.000000
   136  H    1.000000
   137  H    1.000000
   138  H    1.000000
   139  H    1.000000
   140  H    1.000000
   141  H    1.000000
   142  H    1.000000
   143  H    1.000000
   144  H    1.000000
   145  H    1.000000
   146  H    1.000000
   147  H    1.000000
   148  H    1.000000
   149  H    1.000000
   150  H    1.000000
   151  H    1.000000
   152  H    1.000000
   153  H    1.000000
   154  H    1.000000
   155  H    1.000000
   156  H    1.000000
   157  H    1.000000
   158  H    1.000000
 Sum of Mulliken charges = 624.00000

 Dipole moment (field-independent basis, Debye):
    X=              0.0000    Y=              0.0000    Z=             -0.0000  Tot=              0.0000
 Quadrupole moment (field-independent basis, Debye-Ang):
   XX=             -0.0000   YY=              0.0000   ZZ=              0.0000
   XY=              0.0000   XZ=             -0.0000   YZ=             -0.0000

 Normal termination of Gaussian 16 at Thu Oct 14 12:01:58 2021.
