 Gaussian 16, Revision A.03,
 Gaussian 16:  ES64L-G16RevA.03 25-Dec-2016

 --------------------------------------------------------
 #p PBE1PBE/Def2SVP td=(nstates=5) density=(transition=1)
 --------------------------------------------------------

 --------------------------------
 TDDFT excited states in gaussian
 --------------------------------
 Symbolic Z-matrix:
 Charge =  0 Multiplicity = 1

                         Standard orientation:
 ---------------------------------------------------------------------
 Center     Atomic      Atomic             Coordinates (Angstroms)
 Number     Number       Type             X           Y           Z
 ---------------------------------------------------------------------
      1         12           0       28.796693    0.538531   -0.177092
      2          6           0       27.690098   -2.785882    0.361846
      3          6           0       26.356584    1.566820    1.948022
      4          6           0       30.369244    3.550623   -0.059744
      5          6           0       31.521416   -0.755208   -1.884390
      6          7           0       27.338726   -0.623221    1.100104
      7          6           0       26.964610   -1.940787    1.111963
      8          6           0       25.775196   -2.174417    1.967335
      9          6           0       25.186423   -0.701138    2.180584
     10          6           0       26.340845    0.133807    1.742424
     11          6           0       23.915692   -0.476605    1.376958
     12          6           0       26.252759   -2.932324    3.215987
     13          6           0       25.522733   -4.295574    3.571693
     14          1           0       24.881091   -4.529392    4.972524
     15          7           0       28.444807    2.349161    0.743966
     16          6           0       27.304564    2.583457    1.524970
     17          6           0       27.248869    3.987376    1.802204
     18          6           0       28.421657    4.616186    1.262957
     19          6           0       29.101049    3.503658    0.546542
     20          6           0       26.065094    4.589021    2.548592
     21          6           0       28.850838    6.063644    1.351977
     22          8           0       27.985172    6.813332    1.889629
     23          6           0       30.220079    6.697485    0.976162
     24          7           0       30.702572    1.329282   -0.884455
     25          6           0       31.097629    2.612987   -0.736329
     26          6           0       32.504569    2.891662   -1.328424
     27          6           0       32.820380    1.518560   -2.015833
     28          6           0       31.604199    0.608749   -1.509827
     29          6           0       32.431740    4.067056   -2.286593
     30          6           0       34.134895    0.902060   -1.646042
     31          6           0       35.127789    0.862439   -2.775872
     32          7           0       29.426532   -1.274583   -0.831164
     33          6           0       30.532748   -1.707977   -1.572933
     34          6           0       30.409603   -3.018570   -1.964409
     35          6           0       29.281752   -3.483063   -1.257428
     36          6           0       28.773495   -2.409936   -0.529073
     37          6           0       31.268281   -3.660072   -3.033753
     38          6           0       28.393456   -4.662062   -1.077346
     39          8           0       28.457577   -5.739574   -1.582654
     40          6           0       27.407418   -4.192102    0.058058
     41          6           0       26.034224   -4.711926   -0.307678
     42          8           0       25.487201   -5.678122    0.223995
     43          8           0       25.450447   -3.897868   -1.308559
     44          6           0       24.071769   -4.284034   -1.607486
     45          1           0       25.455104    1.933822    2.443608
     46          1           0       30.860835    4.523578   -0.132837
     47          1           0       32.435939   -1.253545   -2.210710
     48          1           0       25.060417   -2.798935    1.431305
     49          1           0       24.943416   -0.583244    3.236254
     50          1           0       23.934871   -0.956264    0.399319
     51          1           0       23.835211    0.588297    1.156230
     52          1           0       23.004019   -0.741229    1.912564
     53          1           0       26.147082   -2.252083    4.060970
     54          1           0       27.326861   -3.116782    3.235615
     55          1           0       26.357398   -4.987713    3.457456
     56          1           0       24.864759   -4.603477    2.759917
     57          1           0       25.862653    4.041578    3.469162
     58          1           0       25.203633    4.471178    1.891361
     59          1           0       26.168774    5.609870    2.918872
     60          1           0       30.233334    6.629403   -0.111162
     61          1           0       31.013738    6.094671    1.417699
     62          1           0       30.323918    7.718808    1.343483
     63          1           0       33.257686    3.148024   -0.583740
     64          1           0       32.660716    1.596762   -3.090929
     65          1           0       31.934536    4.886191   -1.766794
     66          1           0       31.840472    3.763102   -3.150968
     67          1           0       33.341040    4.418225   -2.772931
     68          1           0       34.056800   -0.138653   -1.331519
     69          1           0       34.668011    1.349440   -0.807381
     70          1           0       36.043157    1.343027   -2.432773
     71          1           0       34.813153    1.453589   -3.635900
     72          1           0       35.316909   -0.136395   -3.170591
     73          1           0       30.731557   -4.554354   -3.352067
     74          1           0       32.253281   -3.939976   -2.660979
     75          1           0       31.350643   -2.901998   -3.812306
     76          1           0       27.703289   -4.833982    0.888653
     77          1           0       23.507529   -3.428505   -1.978949
     78          1           0       23.524219   -4.536756   -0.700617
     79          1           0       24.003372   -5.130979   -2.290761
     80         12           0      -29.255097   -0.193278   -0.803481
     81          6           0      -25.871280    0.455480    0.049368
     82          6           0      -28.720461   -3.489719    0.203872
     83          6           0      -32.521739   -0.421012   -0.466825
     84          6           0      -29.536415    3.396948   -1.463106
     85          7           0      -27.490939   -1.323977    0.289714
     86          6           0      -26.200638   -0.908089    0.254002
     87          6           0      -25.287258   -2.075616    0.581840
     88          6           0      -26.047986   -3.297717    0.067074
     89          6           0      -27.535757   -2.698613    0.242042
     90          6           0      -25.837153   -3.731211   -1.384813
     91          6           0      -24.922092   -2.048944    2.129993
     92          6           0      -23.484058   -2.289627    2.373013
     93          1           0      -23.103233   -3.206945    3.551347
     94          7           0      -30.522759   -1.748257   -0.157370
     95          6           0      -30.099606   -3.067964    0.138106
     96          6           0      -31.294532   -3.826165    0.410967
     97          6           0      -32.442181   -3.031166    0.150760
     98          6           0      -31.894440   -1.661462   -0.153805
     99          6           0      -31.207141   -5.284806    0.848762
    100          6           0      -33.850226   -3.450015    0.310543
    101          8           0      -34.087199   -4.590588    0.688783
    102          6           0      -35.066833   -2.599153    0.147918
    103          7           0      -30.830710    1.393431   -0.864074
    104          6           0      -32.086169    0.903472   -0.887078
    105          6           0      -33.092906    2.004702   -1.266045
    106          6           0      -32.137028    3.234104   -1.750860
    107          6           0      -30.741391    2.661438   -1.392010
    108          6           0      -34.232416    1.540546   -2.280760
    109          6           0      -32.455366    4.624249   -1.116631
    110          6           0      -31.584242    5.087216    0.100603
    111          7           0      -28.050081    1.522656   -0.745537
    112          6           0      -28.301263    2.877399   -1.105312
    113          6           0      -26.968144    3.622042   -1.150857
    114          6           0      -26.066265    2.691608   -0.659798
    115          6           0      -26.765836    1.449134   -0.452447
    116          6           0      -26.591844    5.062627   -1.547518
    117          6           0      -24.687366    2.469155   -0.360213
    118          8           0      -23.709089    3.202507   -0.512729
    119          6           0      -24.620929    1.104352    0.226422
    120          6           0      -24.350654    1.382914    1.722734
    121          8           0      -25.165710    1.732105    2.574038
    122          8           0      -22.951286    1.234003    1.930758
    123          6           0      -22.428457    1.553985    3.196696
    124          1           0      -28.599378   -4.554651    0.413578
    125          1           0      -33.589757   -0.645483   -0.498040
    126          1           0      -29.491034    4.438352   -1.786365
    127          1           0      -24.362115   -2.074472    0.005657
    128          1           0      -25.956088   -4.258737    0.571832
    129          1           0      -24.923433   -3.341041   -1.832197
    130          1           0      -26.749470   -3.625319   -1.972321
    131          1           0      -25.668162   -4.803570   -1.280233
    132          1           0      -25.466160   -2.851388    2.628281
    133          1           0      -25.308911   -1.182392    2.666344
    134          1           0      -23.113078   -1.274024    2.506214
    135          1           0      -23.055534   -2.730619    1.473141
    136          1           0      -31.475385   -5.982871    0.056000
    137          1           0      -31.802196   -5.413665    1.751684
    138          1           0      -30.183908   -5.534092    1.130115
    139          1           0      -35.164513   -2.344640   -0.907727
    140          1           0      -35.088523   -1.681678    0.737301
    141          1           0      -35.980807   -3.179422    0.268611
    142          1           0      -33.520515    2.282872   -0.303018
    143          1           0      -32.154387    3.276056   -2.839391
    144          1           0      -34.388892    0.463174   -2.228850
    145          1           0      -34.187206    1.874431   -3.318057
    146          1           0      -35.079786    2.156486   -1.975579
    147          1           0      -33.501063    4.717932   -0.824769
    148          1           0      -32.243683    5.302799   -1.942631
    149          1           0      -32.376452    5.656157    0.587798
    150          1           0      -30.735652    5.743247   -0.094582
    151          1           0      -31.326084    4.198291    0.676528
    152          1           0      -25.863608    5.067334   -2.357786
    153          1           0      -26.022566    5.295321   -0.648091
    154          1           0      -27.517182    5.632158   -1.631243
    155          1           0      -23.768606    0.569854   -0.193207
    156          1           0      -21.348542    1.430597    3.287294
    157          1           0      -22.900782    0.890353    3.919892
    158          1           0      -22.695561    2.599460    3.353356
 ---------------------------------------------------------------------

 SCF Done:  E(RPBE1PBE) =  -4067.33021135     A.U. after   16 cycles

 Excitation energies and oscillator strengths:

 Excited State   1:      Singlet-A      1.8406 eV  673.62 nm  f=0.3409  <S**2>=0.000
     310 -> 315        0.18907
     312 -> 314        0.68682
 This state for optimization and/or second-order correction.
 Total Energy, E(TD-HF/TD-DFT) =  -4067.26257152
 Copying the excited state density for this state as the 1-particle RhoCI density.

 Excited State   2:      Singlet-A      1.8431 eV  672.68 nm  f=0.0000  <S**2>=0.000
     312 -> 313        0.70711

 Excited State   3:      Singlet-A      1.8485 eV  670.72 nm  f=0.3479  <S**2>=0.000
     309 -> 316       -0.16635
     311 -> 313        0.69408
     311 <- 313       -0.11256

 Excited State   4:      Singlet-A      2.1694 eV  571.52 nm  f=0.0000  <S**2>=0.000
     311 -> 314        0.70711

 Excited State   5:      Singlet-A      2.1946 eV  564.95 nm  f=0.0643  <S**2>=0.000
     310 -> 314        0.63436
     312 -> 315       -0.29978

 The electronic state is 1-A.
 Alpha  occ. eigenvalues --  -46.94687 -46.92423 -19.26297 -19.25365 -19.21587
 Alpha  occ. eigenvalues --  -19.21273 -19.20108 -19.19085 -19.18529 -19.17835
 Alpha  occ. eigenvalues --  -14.41936 -14.41880 -14.41693 -14.41511 -14.39867
 Alpha  occ. eigenvalues --  -14.39715 -14.39458 -14.38738 -10.37649 -10.37427
 Alpha  occ. eigenvalues --  -10.32843 -10.32686 -10.31629 -10.31297 -10.29693
 Alpha  occ. eigenvalues --  -10.29634 -10.29235 -10.29212 -10.28999 -10.28919
 Alpha  occ. eigenvalues --  -10.28909 -10.28705 -10.28608 -10.28544 -10.28310
 Alpha  occ. eigenvalues --  -10.28291 -10.28291 -10.28241 -10.27882 -10.27070
 Alpha  occ. eigenvalues --  -10.27006 -10.26801 -10.26660 -10.26648 -10.26372
 Alpha  occ. eigenvalues --  -10.26337 -10.26232 -10.26196 -10.26196 -10.26192
 Alpha  occ. eigenvalues --  -10.26135 -10.26037 -10.26025 -10.25976 -10.25903
 Alpha  occ. eigenvalues --  -10.25827 -10.25675 -10.25463 -10.25443 -10.25348
 Alpha  occ. eigenvalues --  -10.25314 -10.25310 -10.25200 -10.25173 -10.25049
 Alpha  occ. eigenvalues --  -10.24892 -10.24741 -10.24680 -10.24653 -10.24632
 Alpha  occ. eigenvalues --  -10.24547 -10.24358 -10.24301 -10.24066 -10.23969
 Alpha  occ. eigenvalues --  -10.23859 -10.23821 -10.23778 -10.23576 -10.23112
 Alpha  occ. eigenvalues --  -10.23102 -10.22910 -10.22813 -10.22774 -10.22648
 Alpha  occ. eigenvalues --  -10.22629  -3.16476  -3.14565  -1.89253  -1.88900
 Alpha  occ. eigenvalues --   -1.88651  -1.87386  -1.86944  -1.86793  -1.10549
 Alpha  occ. eigenvalues --   -1.10353  -1.06865  -1.04271  -1.04133  -1.03447
 Alpha  occ. eigenvalues --   -1.02811  -1.02322  -0.99890  -0.98961  -0.98802
 Alpha  occ. eigenvalues --   -0.98062  -0.98004  -0.97477  -0.97416  -0.95979
 Alpha  occ. eigenvalues --   -0.88752  -0.87705  -0.84210  -0.83646  -0.83438
 Alpha  occ. eigenvalues --   -0.83374  -0.83014  -0.82203  -0.82089  -0.81552
 Alpha  occ. eigenvalues --   -0.81427  -0.81175  -0.80249  -0.79907  -0.79113
 Alpha  occ. eigenvalues --   -0.79065  -0.78627  -0.77944  -0.76976  -0.76947
 Alpha  occ. eigenvalues --   -0.76111  -0.75869  -0.75143  -0.75028  -0.74843
 Alpha  occ. eigenvalues --   -0.74622  -0.72359  -0.72155  -0.71762  -0.71583
 Alpha  occ. eigenvalues --   -0.71197  -0.71196  -0.70813  -0.70336  -0.69880
 Alpha  occ. eigenvalues --   -0.69577  -0.68001  -0.67178  -0.66685  -0.66319
 Alpha  occ. eigenvalues --   -0.64270  -0.63792  -0.63389  -0.63168  -0.62134
 Alpha  occ. eigenvalues --   -0.61694  -0.61693  -0.61247  -0.60707  -0.60166
 Alpha  occ. eigenvalues --   -0.59955  -0.59836  -0.59514  -0.59445  -0.59210
 Alpha  occ. eigenvalues --   -0.59099  -0.57696  -0.56765  -0.55090  -0.54640
 Alpha  occ. eigenvalues --   -0.54481  -0.54324  -0.54223  -0.53912  -0.53656
 Alpha  occ. eigenvalues --   -0.53292  -0.52915  -0.52730  -0.51587  -0.51394
 Alpha  occ. eigenvalues --   -0.50845  -0.50650  -0.50573  -0.50352  -0.50234
 Alpha  occ. eigenvalues --   -0.50224  -0.49444  -0.49429  -0.49148  -0.48993
 Alpha  occ. eigenvalues --   -0.48463  -0.48288  -0.48241  -0.47953  -0.47822
 Alpha  occ. eigenvalues --   -0.47646  -0.47403  -0.47315  -0.46849  -0.46738
 Alpha  occ. eigenvalues --   -0.46528  -0.46476  -0.46213  -0.46204  -0.45984
 Alpha  occ. eigenvalues --   -0.45812  -0.45745  -0.45534  -0.45167  -0.45162
 Alpha  occ. eigenvalues --   -0.44847  -0.44784  -0.44686  -0.44510  -0.44504
 Alpha  occ. eigenvalues --   -0.44288  -0.44021  -0.43803  -0.43608  -0.43598
 Alpha  occ. eigenvalues --   -0.43311  -0.43153  -0.43012  -0.42923  -0.42661
 Alpha  occ. eigenvalues --   -0.42516  -0.42433  -0.42208  -0.41899  -0.41844
 Alpha  occ. eigenvalues --   -0.41642  -0.41626  -0.41338  -0.41182  -0.40833
 Alpha  occ. eigenvalues --   -0.40801  -0.40663  -0.40634  -0.40601  -0.40538
 Alpha  occ. eigenvalues --   -0.40489  -0.40220  -0.40186  -0.40093  -0.40079
 Alpha  occ. eigenvalues --   -0.39956  -0.39904  -0.39690  -0.39299  -0.39229
 Alpha  occ. eigenvalues --   -0.38957  -0.38920  -0.38688  -0.38552  -0.38498
 Alpha  occ. eigenvalues --   -0.38324  -0.38150  -0.38137  -0.37823  -0.37580
 Alpha  occ. eigenvalues --   -0.37331  -0.37276  -0.37260  -0.37225  -0.37005
 Alpha  occ. eigenvalues --   -0.36914  -0.36576  -0.36417  -0.36415  -0.36221
 Alpha  occ. eigenvalues --   -0.36154  -0.36022  -0.35862  -0.35769  -0.35359
 Alpha  occ. eigenvalues --   -0.35064  -0.34952  -0.34072  -0.34060  -0.33772
 Alpha  occ. eigenvalues --   -0.33513  -0.33287  -0.33209  -0.32901  -0.32779
 Alpha  occ. eigenvalues --   -0.32627  -0.32399  -0.32210  -0.31593  -0.31464
 Alpha  occ. eigenvalues --   -0.31312  -0.30796  -0.30310  -0.30035  -0.29865
 Alpha  occ. eigenvalues --   -0.29443  -0.28967  -0.28863  -0.27432  -0.26757
 Alpha  occ. eigenvalues --   -0.26252  -0.26171  -0.25871  -0.25680  -0.25497
 Alpha  occ. eigenvalues --   -0.25238  -0.25109  -0.24851  -0.21388  -0.20998
 Alpha  occ. eigenvalues --   -0.19285  -0.18755
 Alpha virt. eigenvalues --   -0.11754  -0.11085  -0.06004  -0.05377  -0.04379
 Alpha virt. eigenvalues --   -0.03991  -0.03143  -0.02191  -0.02124  -0.00961
 Alpha virt. eigenvalues --   -0.00478   0.00101   0.00711   0.00786   0.01385

 Mulliken charges:
               1
     1  Mg  12.000018
     2  C    5.999562
     3  C    5.999867
     4  C    6.000703
     5  C    6.000400
     6  N    6.999437
     7  C    6.000463
     8  C    5.999804
     9  C    6.000333
    10  C    5.999555
    11  C    6.000092
    12  C    5.999896
    13  C    6.000008
    14  H    1.000110
    15  N    7.000165
    16  C    5.999265
    17  C    5.999547
    18  C    5.999850
    19  C    5.999152
    20  C    6.000053
    21  C    5.999724
    22  O    7.999623
    23  C    5.999950
    24  N    7.000331
    25  C    5.999296
    26  C    6.000214
    27  C    5.999879
    28  C    6.000330
    29  C    6.000065
    30  C    5.999887
    31  C    5.999971
    32  N    7.000008
    33  C    6.000458
    34  C    6.000583
    35  C    6.000178
    36  C    6.000662
    37  C    6.000005
    38  C    6.000420
    39  O    8.000509
    40  C    6.000006
    41  C    6.000038
    42  O    8.000158
    43  O    7.999968
    44  C    5.999946
    45  H    0.999674
    46  H    0.999965
    47  H    1.000329
    48  H    0.999960
    49  H    0.999893
    50  H    0.999703
    51  H    1.000076
    52  H    0.999773
    53  H    1.000204
    54  H    0.999941
    55  H    0.999921
    56  H    0.999960
    57  H    0.999671
    58  H    0.999629
    59  H    0.999704
    60  H    0.999800
    61  H    0.999819
    62  H    0.999791
    63  H    1.000009
    64  H    1.000038
    65  H    1.000162
    66  H    0.999907
    67  H    0.999890
    68  H    0.999918
    69  H    1.000220
    70  H    1.000149
    71  H    1.000098
    72  H    0.999970
    73  H    1.000287
    74  H    1.000406
    75  H    1.000304
    76  H    1.000115
    77  H    1.000112
    78  H    1.000104
    79  H    1.000011
    80  Mg  11.998072
    81  C    5.981952
    82  C    6.012181
    83  C    6.013484
    84  C    5.985015
    85  N    6.996376
    86  C    6.025026
    87  C    5.996650
    88  C    6.001662
    89  C    5.972325
    90  C    6.001195
    91  C    5.995406
    92  C    5.999073
    93  H    1.006267
    94  N    7.009332
    95  C    5.958342
    96  C    5.982247
    97  C    5.987793
    98  C    5.968996
    99  C    6.004348
   100  C    5.990546
   101  O    7.977966
   102  C    6.002603
   103  N    6.996414
   104  C    5.970287
   105  C    6.010903
   106  C    5.988009
   107  C    6.035139
   108  C    6.003035
   109  C    6.000964
   110  C    5.992209
   111  N    6.997436
   112  C    6.042562
   113  C    6.027828
   114  C    6.000756
   115  C    6.026033
   116  C    6.001713
   117  C    6.019478
   118  O    8.030588
   119  C    5.997243
   120  C    6.002903
   121  O    8.005476
   122  O    8.001636
   123  C    5.997909
   124  H    0.991121
   125  H    0.996556
   126  H    1.009258
   127  H    0.998413
   128  H    0.999641
   129  H    0.986662
   130  H    1.002209
   131  H    0.998363
   132  H    1.011806
   133  H    0.997293
   134  H    0.994374
   135  H    1.002795
   136  H    0.981825
   137  H    0.985383
   138  H    0.983500
   139  H    0.989333
   140  H    0.989032
   141  H    0.988812
   142  H    0.999406
   143  H    1.004301
   144  H    1.008270
   145  H    0.994163
   146  H    0.995513
   147  H    1.009422
   148  H    1.000089
   149  H    1.008186
   150  H    0.996120
   151  H    1.001737
   152  H    1.015827
   153  H    1.011828
   154  H    1.014705
   155  H    1.009150
   156  H    1.004343
   157  H    1.005777
   158  H    0.999406
 Sum of Mulliken charges = 624.00000

 Dipole moment (field-independent basis, Debye):
    X=              5.9564    Y=              7.7993    Z=             -1.1730  Tot=              9.8835
 Quadrupole moment (field-independent basis, Debye-Ang):
   XX=           -336.6276   YY=             -2.3097   ZZ=              2.1539
   XY=           -239.2162   XZ=             29.7068   YZ=             -3.1130

 Normal termination of Gaussian 16 at Thu Oct 14 22:55:50 2021.
