 Gaussian 16, Revision A.03,
 Gaussian 16:  ES64L-G16RevA.03 25-Dec-2016

 --------------------------------------------------------
 #p PBE1PBE/Def2SVP td=(nstates=5) density=(transition=1)
 --------------------------------------------------------

 --------------------------------
 TDDFT excited states in gaussian
 --------------------------------
 Symbolic Z-matrix:
 Charge =  0 Multiplicity = 1

                         Standard orientation:
 ---------------------------------------------------------------------
 Center     Atomic      Atomic             Coordinates (Angstroms)
 Number     Number       Type             X           Y           Z
 ---------------------------------------------------------------------
      1         12           0        4.969279   -0.701703   -0.233182
      2          6           0        3.157149    2.197825   -1.292021
      3          6           0        7.833737    1.055755   -0.824187
      4          6           0        6.587657   -3.383965    0.259713
      5          6           0        2.068306   -2.544408   -0.811504
      6          7           0        5.321054    1.358642   -0.962482
      7          6           0        4.540674    2.388199   -1.275838
      8          6           0        5.328712    3.711223   -1.512429
      9          6           0        6.748280    3.093859   -1.894121
     10          6           0        6.644866    1.771589   -1.154640
     11          6           0        6.909219    2.811883   -3.384453
     12          6           0        5.415348    4.590875   -0.219975
     13          6           0        5.878319    6.033772   -0.441467
     14          1           0        5.302389    7.087899    0.379793
     15          7           0        6.877373   -0.987068    0.191780
     16          6           0        7.906680   -0.159270   -0.109160
     17          6           0        9.123655   -0.814267    0.416796
     18          6           0        8.742789   -2.177747    0.879352
     19          6           0        7.375095   -2.248070    0.432311
     20          6           0       10.457471   -0.136339    0.488199
     21          6           0        9.495655   -3.251542    1.599274
     22          8           0        9.049203   -4.445418    1.698860
     23          6           0       10.827536   -2.887023    2.115277
     24          7           0        4.484841   -2.717586   -0.476425
     25          6           0        5.347484   -3.680751   -0.134160
     26          6           0        4.687584   -5.027758   -0.127800
     27          6           0        3.124022   -4.754859   -0.302596
     28          6           0        3.170330   -3.216004   -0.470077
     29          6           0        5.158538   -6.008846   -1.210242
     30          6           0        2.181516   -5.351751    0.772495
     31          6           0        2.414578   -4.663222    2.098658
     32          7           0        2.910024   -0.258254   -0.756506
     33          6           0        1.876300   -1.181921   -0.968466
     34          6           0        0.695207   -0.415505   -1.406292
     35          6           0        1.131510    0.907626   -1.434751
     36          6           0        2.505826    0.961218   -1.065055
     37          6           0       -0.565370   -0.964213   -1.772760
     38          6           0        0.763149    2.285842   -1.715263
     39          8           0       -0.291613    2.865074   -1.978815
     40          6           0        2.092245    3.162191   -1.751934
     41          6           0        1.849423    4.391208   -0.918949
     42          8           0        1.691491    4.306073    0.316031
     43          8           0        2.076425    5.484535   -1.663024
     44          6           0        1.881870    6.738862   -0.887804
     45          1           0        8.792101    1.424277   -1.195229
     46          1           0        7.077349   -4.322715    0.526897
     47          1           0        1.104000   -3.042241   -0.928677
     48          1           0        4.955135    4.321939   -2.334555
     49          1           0        7.570704    3.687591   -1.495597
     50          1           0        5.972825    2.961795   -3.921681
     51          1           0        7.223906    1.770250   -3.451275
     52          1           0        7.726474    3.399283   -3.803776
     53          1           0        6.229968    4.228861    0.407241
     54          1           0        4.461268    4.595438    0.308265
     55          1           0        5.839784    6.307252   -1.496281
     56          1           0        6.935606    6.096586   -0.183784
     57          1           0       10.463912    0.795334   -0.076150
     58          1           0       11.168074   -0.775807   -0.035092
     59          1           0       10.786617    0.014525    1.516418
     60          1           0       11.457145   -2.560239    1.287416
     61          1           0       11.179114   -3.751413    2.677481
     62          1           0       10.725825   -2.028950    2.780345
     63          1           0        4.856991   -5.541750    0.817472
     64          1           0        2.741743   -5.153879   -1.242447
     65          1           0        5.535256   -6.951606   -0.812759
     66          1           0        5.915854   -5.507947   -1.812624
     67          1           0        4.409452   -6.253005   -1.963020
     68          1           0        2.395135   -6.410031    0.918631
     69          1           0        1.125512   -5.258532    0.518691
     70          1           0        3.268548   -5.202956    2.506401
     71          1           0        1.540861   -4.771450    2.742176
     72          1           0        2.720465   -3.626017    1.960366
     73          1           0       -1.320671   -0.328093   -1.311413
     74          1           0       -0.659751   -1.997235   -1.438753
     75          1           0       -0.514721   -0.879275   -2.858153
     76          1           0        2.277981    3.406352   -2.797405
     77          1           0        1.150485    7.339975   -1.428150
     78          1           0        2.873337    7.165385   -0.734586
     79          1           0        1.389277    6.636060    0.079731
     80         12           0       -4.956048   -0.585516    0.208314
     81          6           0       -2.856504    2.020258    0.964379
     82          6           0       -7.518177    1.665231   -0.148130
     83          6           0       -7.118450   -3.216570   -0.447219
     84          6           0       -2.449633   -2.842281    1.011596
     85          7           0       -5.205921    1.632864    0.434847
     86          6           0       -4.146229    2.463063    0.665603
     87          6           0       -4.560311    3.854468    0.648243
     88          6           0       -6.074121    3.825784    0.508317
     89          6           0       -6.338585    2.273909    0.276990
     90          6           0       -6.950204    4.415561    1.667015
     91          6           0       -3.835023    4.661092   -0.482175
     92          6           0       -3.525062    6.170660   -0.193907
     93          1           0       -4.469562    6.911416    0.772961
     94          7           0       -7.018394   -0.709248   -0.348811
     95          6           0       -7.884759    0.365615   -0.451285
     96          6           0       -9.221331   -0.133476   -0.833338
     97          6           0       -9.118763   -1.587879   -0.933282
     98          6           0       -7.718811   -1.901808   -0.598462
     99          6           0      -10.448196    0.742335   -1.028462
    100          6           0      -10.175772   -2.555391   -1.412302
    101          8           0       -9.889857   -3.761628   -1.510731
    102          6           0      -11.570871   -2.183791   -1.750932
    103          7           0       -4.844387   -2.731178    0.343151
    104          6           0       -5.834801   -3.546470   -0.030389
    105          6           0       -5.364043   -5.010402   -0.033927
    106          6           0       -3.757454   -4.921397    0.193402
    107          6           0       -3.662346   -3.377282    0.456901
    108          6           0       -6.129538   -5.856266    1.029794
    109          6           0       -2.885954   -5.326786   -1.026827
    110          6           0       -2.072465   -6.619491   -0.863930
    111          7           0       -3.038798   -0.491059    0.929082
    112          6           0       -2.119934   -1.498837    1.230913
    113          6           0       -0.845509   -0.904806    1.692119
    114          6           0       -1.141252    0.476003    1.604243
    115          6           0       -2.473153    0.670729    1.150191
    116          6           0        0.383406   -1.578256    2.060545
    117          6           0       -0.534832    1.818443    1.719393
    118          8           0        0.586033    2.169540    1.976559
    119          6           0       -1.646814    2.863009    1.347832
    120          6           0       -1.763813    3.829772    2.451213
    121          8           0       -2.273363    3.489419    3.531049
    122          8           0       -1.408837    5.105593    2.135870
    123          6           0       -1.682329    6.167763    3.098757
    124          1           0       -8.311648    2.407812   -0.255118
    125          1           0       -7.823436   -4.032596   -0.620534
    126          1           0       -1.656180   -3.583170    1.128935
    127          1           0       -4.298783    4.292394    1.612148
    128          1           0       -6.392103    4.240870   -0.448787
    129          1           0       -6.504038    4.869961    2.552234
    130          1           0       -7.613685    3.625671    2.018253
    131          1           0       -7.678031    5.153416    1.328567
    132          1           0       -4.375420    4.540939   -1.421206
    133          1           0       -2.938628    4.117437   -0.779939
    134          1           0       -3.501469    6.731456   -1.128707
    135          1           0       -2.579504    6.317607    0.327200
    136          1           0      -10.228568    1.808660   -0.988105
    137          1           0      -11.181600    0.571541   -0.239894
    138          1           0      -10.811709    0.653003   -2.052015
    139          1           0      -12.040740   -3.085340   -2.142881
    140          1           0      -11.642111   -1.375102   -2.479465
    141          1           0      -12.058900   -1.766706   -0.869875
    142          1           0       -5.481208   -5.375703   -1.054268
    143          1           0       -3.432780   -5.448628    1.090393
    144          1           0       -6.533203   -6.788717    0.634992
    145          1           0       -6.973870   -5.297832    1.434889
    146          1           0       -5.398767   -5.998902    1.826219
    147          1           0       -2.166185   -4.561616   -1.315187
    148          1           0       -3.484937   -5.455639   -1.928602
    149          1           0       -2.583262   -7.283713   -0.166702
    150          1           0       -1.104997   -6.354983   -0.438314
    151          1           0       -1.898784   -7.005154   -1.867675
    152          1           0        1.251523   -0.920238    2.028970
    153          1           0        0.601664   -2.447214    1.440068
    154          1           0        0.334383   -1.790182    3.128720
    155          1           0       -1.228166    3.291545    0.436599
    156          1           0       -1.108510    6.094045    4.022956
    157          1           0       -2.752577    6.262888    3.281876
    158          1           0       -1.369699    7.124580    2.680881
 ---------------------------------------------------------------------

 SCF Done:  E(RPBE1PBE) =  -4067.42181561     A.U. after   16 cycles

 Excitation energies and oscillator strengths:

 Excited State   1:      Singlet-A      1.4403 eV  860.85 nm  f=0.0159  <S**2>=0.000
     312 -> 313        0.70536
 This state for optimization and/or second-order correction.
 Total Energy, E(TD-HF/TD-DFT) =  -4067.36888710
 Copying the excited state density for this state as the 1-particle RhoCI density.

 Excited State   2:      Singlet-A      1.7956 eV  690.50 nm  f=0.7825  <S**2>=0.000
     309 -> 315       -0.12986
     311 -> 313        0.62783
     312 -> 314        0.29155

 Excited State   3:      Singlet-A      1.9023 eV  651.76 nm  f=0.1035  <S**2>=0.000
     310 -> 316       -0.16247
     311 -> 313       -0.29006
     312 -> 314        0.62089

 Excited State   4:      Singlet-A      1.9261 eV  643.70 nm  f=0.0315  <S**2>=0.000
     311 -> 314        0.70276

 Excited State   5:      Singlet-A      2.0531 eV  603.88 nm  f=0.0010  <S**2>=0.000
     310 -> 313        0.70175

 The electronic state is 1-A.
 Alpha  occ. eigenvalues --  -46.91684 -46.91102 -19.26740 -19.25469 -19.18958
 Alpha  occ. eigenvalues --  -19.18909 -19.18864 -19.18406 -19.18118 -19.17944
 Alpha  occ. eigenvalues --  -14.41852 -14.40935 -14.40798 -14.40584 -14.38986
 Alpha  occ. eigenvalues --  -14.38629 -14.38306 -14.38189 -10.35747 -10.35399
 Alpha  occ. eigenvalues --  -10.32439 -10.31869 -10.31610 -10.30672 -10.29079
 Alpha  occ. eigenvalues --  -10.28854 -10.28737 -10.28542 -10.28312 -10.28162
 Alpha  occ. eigenvalues --  -10.28089 -10.28019 -10.27785 -10.27659 -10.27528
 Alpha  occ. eigenvalues --  -10.27338 -10.27331 -10.27207 -10.27157 -10.27088
 Alpha  occ. eigenvalues --  -10.26962 -10.26454 -10.26284 -10.25972 -10.25926
 Alpha  occ. eigenvalues --  -10.25891 -10.25813 -10.25640 -10.25569 -10.25494
 Alpha  occ. eigenvalues --  -10.25419 -10.25365 -10.25322 -10.25315 -10.25283
 Alpha  occ. eigenvalues --  -10.25218 -10.25106 -10.24943 -10.24816 -10.24792
 Alpha  occ. eigenvalues --  -10.24757 -10.24692 -10.24321 -10.24183 -10.24097
 Alpha  occ. eigenvalues --  -10.24086 -10.24086 -10.24029 -10.23829 -10.23683
 Alpha  occ. eigenvalues --  -10.23640 -10.23632 -10.23555 -10.23550 -10.23153
 Alpha  occ. eigenvalues --  -10.22963 -10.22953 -10.22934 -10.22913 -10.22893
 Alpha  occ. eigenvalues --  -10.22732 -10.22687 -10.22504 -10.22362 -10.22317
 Alpha  occ. eigenvalues --  -10.22256  -3.13698  -3.13422  -1.86561  -1.86244
 Alpha  occ. eigenvalues --   -1.86055  -1.85927  -1.85810  -1.85657  -1.11218
 Alpha  occ. eigenvalues --   -1.10065  -1.04306  -1.03776  -1.03160  -1.01785
 Alpha  occ. eigenvalues --   -1.01111  -1.00796  -0.99089  -0.99047  -0.98322
 Alpha  occ. eigenvalues --   -0.98160  -0.97838  -0.97509  -0.97026  -0.95042
 Alpha  occ. eigenvalues --   -0.86272  -0.85839  -0.83904  -0.83357  -0.82641
 Alpha  occ. eigenvalues --   -0.82533  -0.82268  -0.82054  -0.81921  -0.81532
 Alpha  occ. eigenvalues --   -0.81379  -0.80855  -0.80493  -0.79951  -0.79151
 Alpha  occ. eigenvalues --   -0.78306  -0.77459  -0.77419  -0.77145  -0.76799
 Alpha  occ. eigenvalues --   -0.75933  -0.75812  -0.75487  -0.74874  -0.74756
 Alpha  occ. eigenvalues --   -0.74233  -0.73027  -0.72183  -0.71526  -0.71158
 Alpha  occ. eigenvalues --   -0.71089  -0.71049  -0.70176  -0.69869  -0.69238
 Alpha  occ. eigenvalues --   -0.68746  -0.67163  -0.66429  -0.66047  -0.65365
 Alpha  occ. eigenvalues --   -0.64342  -0.63168  -0.62790  -0.62513  -0.62083
 Alpha  occ. eigenvalues --   -0.61647  -0.61458  -0.60778  -0.59634  -0.59559
 Alpha  occ. eigenvalues --   -0.59456  -0.59374  -0.59051  -0.58919  -0.58817
 Alpha  occ. eigenvalues --   -0.58216  -0.56804  -0.56468  -0.54918  -0.54209
 Alpha  occ. eigenvalues --   -0.53725  -0.53597  -0.53489  -0.53099  -0.52986
 Alpha  occ. eigenvalues --   -0.52306  -0.52202  -0.52045  -0.51712  -0.51186
 Alpha  occ. eigenvalues --   -0.50787  -0.50280  -0.50133  -0.49985  -0.49833
 Alpha  occ. eigenvalues --   -0.49394  -0.49339  -0.49053  -0.48372  -0.48319
 Alpha  occ. eigenvalues --   -0.47928  -0.47757  -0.47667  -0.47575  -0.47467
 Alpha  occ. eigenvalues --   -0.47319  -0.47093  -0.46989  -0.46881  -0.46484
 Alpha  occ. eigenvalues --   -0.46347  -0.46135  -0.46112  -0.46087  -0.45907
 Alpha  occ. eigenvalues --   -0.45430  -0.45052  -0.44879  -0.44685  -0.44582
 Alpha  occ. eigenvalues --   -0.44485  -0.44364  -0.44062  -0.44035  -0.43895
 Alpha  occ. eigenvalues --   -0.43703  -0.43556  -0.43285  -0.43219  -0.43142
 Alpha  occ. eigenvalues --   -0.42977  -0.42793  -0.42614  -0.42330  -0.42265
 Alpha  occ. eigenvalues --   -0.42180  -0.41918  -0.41830  -0.41624  -0.41540
 Alpha  occ. eigenvalues --   -0.41346  -0.41217  -0.41071  -0.40968  -0.40783
 Alpha  occ. eigenvalues --   -0.40600  -0.40446  -0.40400  -0.40065  -0.39914
 Alpha  occ. eigenvalues --   -0.39850  -0.39517  -0.39294  -0.39210  -0.39093
 Alpha  occ. eigenvalues --   -0.38883  -0.38836  -0.38808  -0.38747  -0.38689
 Alpha  occ. eigenvalues --   -0.38449  -0.38234  -0.38191  -0.38057  -0.37979
 Alpha  occ. eigenvalues --   -0.37810  -0.37688  -0.37433  -0.37387  -0.37296
 Alpha  occ. eigenvalues --   -0.36930  -0.36852  -0.36767  -0.36596  -0.36351
 Alpha  occ. eigenvalues --   -0.36281  -0.36068  -0.35928  -0.35788  -0.35588
 Alpha  occ. eigenvalues --   -0.35534  -0.35498  -0.35378  -0.35136  -0.35047
 Alpha  occ. eigenvalues --   -0.34881  -0.34669  -0.34473  -0.34214  -0.34210
 Alpha  occ. eigenvalues --   -0.33445  -0.32852  -0.32623  -0.32369  -0.32148
 Alpha  occ. eigenvalues --   -0.31829  -0.31602  -0.31349  -0.31109  -0.31002
 Alpha  occ. eigenvalues --   -0.30704  -0.30384  -0.29438  -0.28805  -0.28703
 Alpha  occ. eigenvalues --   -0.28276  -0.28006  -0.27474  -0.26638  -0.26022
 Alpha  occ. eigenvalues --   -0.25952  -0.25365  -0.25227  -0.25203  -0.24916
 Alpha  occ. eigenvalues --   -0.24686  -0.24526  -0.24099  -0.20892  -0.20170
 Alpha  occ. eigenvalues --   -0.18695  -0.17931
 Alpha virt. eigenvalues --   -0.11206  -0.10159  -0.05321  -0.04683  -0.04130
 Alpha virt. eigenvalues --   -0.02920  -0.02356  -0.01021   0.00435   0.00549
 Alpha virt. eigenvalues --    0.00633   0.00793   0.01056   0.02035   0.02506

 Mulliken charges:
               1
     1  Mg  12.001159
     2  C    6.001995
     3  C    6.000969
     4  C    5.999909
     5  C    6.001321
     6  N    7.001232
     7  C    5.998717
     8  C    6.000337
     9  C    5.999566
    10  C    6.000847
    11  C    5.999753
    12  C    5.999951
    13  C    5.999649
    14  H    1.000922
    15  N    6.999677
    16  C    6.001524
    17  C    6.002134
    18  C    6.001056
    19  C    6.001263
    20  C    5.999548
    21  C    6.001177
    22  O    8.002154
    23  C    5.999576
    24  N    6.999965
    25  C    6.001520
    26  C    5.999259
    27  C    6.000350
    28  C    5.998594
    29  C    5.999819
    30  C    5.999742
    31  C    5.999743
    32  N    7.000321
    33  C    5.998311
    34  C    5.999503
    35  C    6.001418
    36  C    5.998237
    37  C    5.999150
    38  C    6.000104
    39  O    8.001092
    40  C    5.999425
    41  C    6.000348
    42  O    8.000069
    43  O    7.999946
    44  C    5.999791
    45  H    1.001284
    46  H    1.000924
    47  H    1.000489
    48  H    1.000624
    49  H    1.000574
    50  H    1.001045
    51  H    0.999910
    52  H    1.000846
    53  H    0.999585
    54  H    1.000428
    55  H    1.000252
    56  H    0.999996
    57  H    1.001263
    58  H    1.001568
    59  H    1.001651
    60  H    1.000514
    61  H    1.001327
    62  H    1.000598
    63  H    1.000413
    64  H    1.000486
    65  H    1.000540
    66  H    0.999820
    67  H    1.001012
    68  H    1.000318
    69  H    1.001072
    70  H    0.999811
    71  H    1.000772
    72  H    0.999506
    73  H    1.001805
    74  H    1.001259
    75  H    1.001975
    76  H    1.000494
    77  H    1.000580
    78  H    0.999880
    79  H    1.000423
    80  Mg  11.998496
    81  C    5.997029
    82  C    5.997736
    83  C    6.001995
    84  C    6.001634
    85  N    6.998648
    86  C    6.001369
    87  C    5.999693
    88  C    6.000030
    89  C    5.998998
    90  C    6.000275
    91  C    5.999798
    92  C    6.000146
    93  H    1.000233
    94  N    7.000625
    95  C    5.998462
    96  C    5.997345
    97  C    5.999818
    98  C    5.996424
    99  C    6.000397
   100  C    5.999011
   101  O    7.998038
   102  C    6.000397
   103  N    7.001791
   104  C    5.996180
   105  C    6.000880
   106  C    6.000191
   107  C    5.997085
   108  C    6.000324
   109  C    6.000468
   110  C    6.000128
   111  N    7.001330
   112  C    5.996578
   113  C    6.004730
   114  C    5.998177
   115  C    6.001794
   116  C    5.997941
   117  C    6.000679
   118  O    8.001214
   119  C    6.000245
   120  C    5.999944
   121  O    8.000201
   122  O    7.999832
   123  C    6.000013
   124  H    0.997961
   125  H    0.999125
   126  H    0.998880
   127  H    0.999373
   128  H    0.999556
   129  H    0.998605
   130  H    1.000257
   131  H    0.999255
   132  H    1.000331
   133  H    0.999311
   134  H    0.999634
   135  H    0.999220
   136  H    0.998652
   137  H    0.998234
   138  H    0.998250
   139  H    0.998614
   140  H    0.999359
   141  H    0.999342
   142  H    0.998967
   143  H    0.998677
   144  H    0.999041
   145  H    0.999940
   146  H    0.998922
   147  H    0.998841
   148  H    0.999901
   149  H    1.000080
   150  H    0.998854
   151  H    0.999456
   152  H    0.999857
   153  H    1.001241
   154  H    1.001561
   155  H    1.000212
   156  H    0.999650
   157  H    1.000529
   158  H    0.999802
 Sum of Mulliken charges = 624.00000

 Dipole moment (field-independent basis, Debye):
    X=              2.4142    Y=              0.0485    Z=              0.0780  Tot=              2.4160
 Quadrupole moment (field-independent basis, Debye-Ang):
   XX=             -2.1581   YY=             -0.3103   ZZ=              0.3381
   XY=             -2.0209   XZ=             -0.4019   YZ=             -0.5435

 Normal termination of Gaussian 16 at Thu Oct 14 16:43:52 2021.
