 Gaussian 16, Revision A.03,
 Gaussian 16:  ES64L-G16RevA.03 25-Dec-2016

 --------------------------------------------------------
 #p PBE1PBE/Def2SVP td=(nstates=5) density=(transition=1)
 --------------------------------------------------------

 --------------------------------
 TDDFT excited states in gaussian
 --------------------------------
 Symbolic Z-matrix:
 Charge =  0 Multiplicity = 1

                         Standard orientation:
 ---------------------------------------------------------------------
 Center     Atomic      Atomic             Coordinates (Angstroms)
 Number     Number       Type             X           Y           Z
 ---------------------------------------------------------------------
      1         12           0      -25.537220    0.488660    0.485354
      2          6           0      -25.720175   -1.964234   -1.858860
      3          6           0      -25.050763   -1.729585    3.082626
      4          6           0      -25.588568    3.111591    2.685573
      5          6           0      -26.477318    2.870272   -2.071016
      6          7           0      -25.613464   -1.600311    0.602131
      7          6           0      -25.440348   -2.445427   -0.544907
      8          6           0      -25.020447   -3.802408   -0.142380
      9          6           0      -25.232623   -3.740366    1.436651
     10          6           0      -25.312677   -2.269496    1.779757
     11          6           0      -26.555538   -4.514671    1.929132
     12          6           0      -23.630280   -4.246512   -0.692635
     13          6           0      -23.577624   -5.633077   -1.248633
     14          1           0      -24.389768   -6.731122   -0.455157
     15          7           0      -25.273017    0.671970    2.589912
     16          6           0      -25.104869   -0.390928    3.426773
     17          6           0      -24.949940    0.122628    4.744534
     18          6           0      -25.010149    1.569605    4.682472
     19          6           0      -25.233130    1.892884    3.233462
     20          6           0      -24.846768   -0.799019    5.979418
     21          6           0      -24.856164    2.645550    5.711538
     22          8           0      -25.028887    3.862763    5.582617
     23          6           0      -24.362207    2.153747    7.124536
     24          7           0      -26.083781    2.724278    0.360287
     25          6           0      -25.918374    3.544652    1.367826
     26          6           0      -25.979152    5.010157    0.942103
     27          6           0      -26.264167    4.910934   -0.583780
     28          6           0      -26.297966    3.398485   -0.794409
     29          6           0      -27.098079    5.866225    1.726976
     30          6           0      -25.072721    5.612145   -1.373703
     31          6           0      -23.644730    5.012799   -1.361899
     32          7           0      -26.166363    0.458975   -1.523252
     33          6           0      -26.447399    1.489685   -2.400105
     34          6           0      -26.568120    0.875720   -3.738112
     35          6           0      -26.292521   -0.455310   -3.643543
     36          6           0      -26.051176   -0.657664   -2.236255
     37          6           0      -27.074857    1.591740   -4.942404
     38          6           0      -26.161761   -1.729027   -4.350688
     39          8           0      -26.309013   -2.013515   -5.527470
     40          6           0      -25.791278   -2.748003   -3.185448
     41          6           0      -26.888365   -3.733677   -3.104772
     42          8           0      -28.101138   -3.517330   -2.936412
     43          8           0      -26.258202   -4.950390   -3.270175
     44          6           0      -27.121340   -6.117019   -3.043868
     45          1           0      -24.842685   -2.393876    3.923803
     46          1           0      -25.474531    3.910124    3.422529
     47          1           0      -26.684592    3.584162   -2.870141
     48          1           0      -25.759497   -4.459651   -0.602322
     49          1           0      -24.350189   -4.170937    1.908981
     50          1           0      -26.980826   -5.176491    1.174661
     51          1           0      -27.324145   -3.750633    2.044867
     52          1           0      -26.250014   -4.955744    2.877018
     53          1           0      -22.886776   -4.192595    0.102649
     54          1           0      -23.448698   -3.524428   -1.488578
     55          1           0      -22.574325   -6.057227   -1.242132
     56          1           0      -23.842681   -5.843318   -2.284893
     57          1           0      -23.883167   -1.285706    6.129665
     58          1           0      -25.672493   -1.492075    5.819179
     59          1           0      -24.925753   -0.257708    6.921959
     60          1           0      -25.180490    1.634192    7.623172
     61          1           0      -23.878785    2.994352    7.621982
     62          1           0      -23.506463    1.479926    7.077771
     63          1           0      -24.995914    5.454586    1.094609
     64          1           0      -27.191748    5.396266   -0.887476
     65          1           0      -26.550992    6.498554    2.427149
     66          1           0      -27.752986    5.200990    2.290632
     67          1           0      -27.733768    6.558203    1.176031
     68          1           0      -24.933654    6.670536   -1.153917
     69          1           0      -25.414013    5.496026   -2.402876
     70          1           0      -23.497358    4.738193   -2.406488
     71          1           0      -23.545551    4.175115   -0.672711
     72          1           0      -22.871521    5.718913   -1.059251
     73          1           0      -26.527650    1.109079   -5.751573
     74          1           0      -26.891901    2.665823   -4.906075
     75          1           0      -28.089032    1.238456   -5.124157
     76          1           0      -24.917340   -3.216879   -3.636876
     77          1           0      -26.469733   -6.940862   -3.336497
     78          1           0      -27.923230   -6.039911   -3.778126
     79          1           0      -27.599106   -6.171160   -2.065433
     80         12           0       25.244908    0.682063   -0.352986
     81          6           0       26.650761   -2.149851    1.327855
     82          6           0       23.996090   -1.425987   -2.759329
     83          6           0       24.287192    3.311466   -2.244240
     84          6           0       27.373674    2.698832    1.607205
     85          7           0       25.321583   -1.521657   -0.643701
     86          6           0       25.877551   -2.511985    0.181358
     87          6           0       25.542101   -3.868907   -0.382491
     88          6           0       25.179207   -3.529449   -1.889524
     89          6           0       24.854724   -2.010103   -1.786856
     90          6           0       26.446811   -3.822329   -2.768876
     91          6           0       24.474933   -4.664760    0.448839
     92          6           0       24.876650   -6.045280    0.597419
     93          1           0       24.063724   -6.873827    1.714283
     94          7           0       24.118375    0.817306   -2.160819
     95          6           0       23.675325   -0.157030   -2.964357
     96          6           0       22.875540    0.414395   -4.003889
     97          6           0       22.949488    1.787685   -3.901511
     98          6           0       23.798386    2.071395   -2.653785
     99          6           0       22.261542   -0.449765   -5.150769
    100          6           0       22.246472    2.864841   -4.752926
    101          8           0       22.467551    4.027219   -4.524974
    102          6           0       21.224873    2.480051   -5.796942
    103          7           0       25.993815    2.684803   -0.468029
    104          6           0       25.303438    3.590829   -1.265588
    105          6           0       25.656987    4.995816   -0.900295
    106          6           0       26.637433    4.809105    0.358215
    107          6           0       26.632937    3.313352    0.569150
    108          6           0       26.207115    5.778623   -2.044340
    109          6           0       26.279452    5.629359    1.716181
    110          6           0       27.264584    6.609967    2.217445
    111          7           0       26.688880    0.409028    1.199374
    112          6           0       27.449243    1.344496    1.864190
    113          6           0       28.256204    0.612714    2.934773
    114          6           0       27.889395   -0.744590    2.837762
    115          6           0       26.972690   -0.823559    1.731425
    116          6           0       29.267753    1.285143    3.872931
    117          6           0       28.229638   -2.039762    3.343958
    118          8           0       29.011014   -2.371215    4.263957
    119          6           0       27.580385   -3.025454    2.287946
    120          6           0       26.900548   -4.144551    3.132783
    121          8           0       25.671383   -4.136062    3.328554
    122          8           0       27.818976   -5.077477    3.484787
    123          6           0       27.188057   -6.029309    4.462569
    124          1           0       23.411333   -2.090416   -3.399472
    125          1           0       23.974533    4.179883   -2.828952
    126          1           0       27.988066    3.244920    2.325888
    127          1           0       26.485526   -4.413037   -0.420696
    128          1           0       24.351532   -4.137701   -2.252599
    129          1           0       27.236962   -3.080439   -2.655973
    130          1           0       26.136471   -3.920919   -3.808234
    131          1           0       26.852496   -4.793573   -2.484719
    132          1           0       23.588265   -4.732885   -0.181912
    133          1           0       24.228600   -4.163127    1.384974
    134          1           0       25.884745   -6.119689    1.005582
    135          1           0       24.763457   -6.524180   -0.375490
    136          1           0       21.202287   -0.197472   -5.102318
    137          1           0       22.353941   -1.527109   -5.014138
    138          1           0       22.744852   -0.206208   -6.096822
    139          1           0       20.897511    3.358054   -6.353870
    140          1           0       20.481858    2.090158   -5.101299
    141          1           0       21.672303    1.728016   -6.446762
    142          1           0       24.699328    5.401932   -0.574090
    143          1           0       27.621841    5.147219    0.035569
    144          1           0       25.425732    6.501084   -2.276693
    145          1           0       26.308893    5.188420   -2.954929
    146          1           0       27.165542    6.265829   -1.863575
    147          1           0       26.252122    4.831561    2.458338
    148          1           0       25.273048    6.030224    1.603129
    149          1           0       27.647475    6.319360    3.195386
    150          1           0       26.558188    7.425534    2.368404
    151          1           0       27.999894    6.904585    1.467456
    152          1           0       30.235454    1.179448    3.383817
    153          1           0       29.303057    0.815008    4.855650
    154          1           0       28.965530    2.319716    4.035649
    155          1           0       28.443023   -3.390769    1.732396
    156          1           0       27.044493   -5.628395    5.465809
    157          1           0       27.704929   -6.982410    4.569746
    158          1           0       26.232963   -6.310100    4.018208
 ---------------------------------------------------------------------

 SCF Done:  E(RPBE1PBE) =  -4067.34089850     A.U. after   16 cycles

 Excitation energies and oscillator strengths:

 Excited State   1:      Singlet-A      1.7949 eV  690.74 nm  f=0.0000  <S**2>=0.000
     312 -> 313        0.70711
 This state for optimization and/or second-order correction.
 Total Energy, E(TD-HF/TD-DFT) =  -4067.27493552
 Copying the excited state density for this state as the 1-particle RhoCI density.

 Excited State   2:      Singlet-A      1.8312 eV  677.06 nm  f=0.3322  <S**2>=0.000
     310 -> 315       -0.18212
     312 -> 314        0.68906

 Excited State   3:      Singlet-A      1.8382 eV  674.49 nm  f=0.3880  <S**2>=0.000
     309 -> 316        0.17958
     311 -> 313        0.69167
     311 <- 313       -0.10363

 Excited State   4:      Singlet-A      2.2179 eV  559.00 nm  f=0.0000  <S**2>=0.000
     311 -> 314        0.70711

 Excited State   5:      Singlet-A      2.2558 eV  549.63 nm  f=0.0516  <S**2>=0.000
     309 -> 313        0.62875
     311 -> 316       -0.31560

 The electronic state is 1-A.
 Alpha  occ. eigenvalues --  -46.92821 -46.92664 -19.26859 -19.26380 -19.20577
 Alpha  occ. eigenvalues --  -19.20087 -19.19963 -19.19571 -19.19481 -19.19188
 Alpha  occ. eigenvalues --  -14.41995 -14.41735 -14.41600 -14.41509 -14.39247
 Alpha  occ. eigenvalues --  -14.39106 -14.38936 -14.38933 -10.36804 -10.36626
 Alpha  occ. eigenvalues --  -10.32736 -10.32688 -10.32614 -10.32228 -10.29661
 Alpha  occ. eigenvalues --  -10.29611 -10.29108 -10.28917 -10.28897 -10.28861
 Alpha  occ. eigenvalues --  -10.28810 -10.28620 -10.28533 -10.28470 -10.28134
 Alpha  occ. eigenvalues --  -10.27944 -10.27631 -10.27361 -10.27239 -10.26754
 Alpha  occ. eigenvalues --  -10.26721 -10.26673 -10.26673 -10.26610 -10.26493
 Alpha  occ. eigenvalues --  -10.26330 -10.26319 -10.26217 -10.26178 -10.26100
 Alpha  occ. eigenvalues --  -10.25902 -10.25897 -10.25771 -10.25597 -10.25563
 Alpha  occ. eigenvalues --  -10.25447 -10.25415 -10.25399 -10.25309 -10.25278
 Alpha  occ. eigenvalues --  -10.25274 -10.25241 -10.25203 -10.25106 -10.24992
 Alpha  occ. eigenvalues --  -10.24803 -10.24753 -10.24245 -10.24177 -10.24102
 Alpha  occ. eigenvalues --  -10.24095 -10.24053 -10.23794 -10.23748 -10.23689
 Alpha  occ. eigenvalues --  -10.23609 -10.23597 -10.23360 -10.23148 -10.23028
 Alpha  occ. eigenvalues --  -10.22967 -10.22927 -10.22807 -10.22732 -10.22684
 Alpha  occ. eigenvalues --  -10.22521  -3.14743  -3.14653  -1.87578  -1.87496
 Alpha  occ. eigenvalues --   -1.87104  -1.87017  -1.86966  -1.86876  -1.10871
 Alpha  occ. eigenvalues --   -1.10796  -1.06283  -1.05117  -1.04178  -1.02746
 Alpha  occ. eigenvalues --   -1.02351  -1.01992  -0.99793  -0.98619  -0.98581
 Alpha  occ. eigenvalues --   -0.97593  -0.97462  -0.97380  -0.96343  -0.96266
 Alpha  occ. eigenvalues --   -0.86849  -0.85695  -0.83428  -0.83207  -0.83124
 Alpha  occ. eigenvalues --   -0.82940  -0.82507  -0.82325  -0.81740  -0.81604
 Alpha  occ. eigenvalues --   -0.81523  -0.81279  -0.80425  -0.79954  -0.78973
 Alpha  occ. eigenvalues --   -0.78695  -0.78161  -0.77705  -0.76877  -0.76710
 Alpha  occ. eigenvalues --   -0.76554  -0.75905  -0.75508  -0.75064  -0.74807
 Alpha  occ. eigenvalues --   -0.74156  -0.72385  -0.72368  -0.71878  -0.71702
 Alpha  occ. eigenvalues --   -0.71499  -0.70932  -0.70178  -0.69832  -0.69335
 Alpha  occ. eigenvalues --   -0.69249  -0.66965  -0.66678  -0.66610  -0.65977
 Alpha  occ. eigenvalues --   -0.64210  -0.63677  -0.63149  -0.62869  -0.62351
 Alpha  occ. eigenvalues --   -0.61880  -0.61859  -0.60731  -0.59840  -0.59535
 Alpha  occ. eigenvalues --   -0.59502  -0.59371  -0.59249  -0.59021  -0.58968
 Alpha  occ. eigenvalues --   -0.58829  -0.57151  -0.56705  -0.54855  -0.54418
 Alpha  occ. eigenvalues --   -0.54024  -0.53707  -0.53525  -0.53408  -0.53033
 Alpha  occ. eigenvalues --   -0.52851  -0.52531  -0.52139  -0.52049  -0.51570
 Alpha  occ. eigenvalues --   -0.50583  -0.50525  -0.50120  -0.50047  -0.49679
 Alpha  occ. eigenvalues --   -0.49554  -0.49476  -0.49057  -0.48928  -0.48593
 Alpha  occ. eigenvalues --   -0.48150  -0.48130  -0.48079  -0.47954  -0.47701
 Alpha  occ. eigenvalues --   -0.47610  -0.47355  -0.47175  -0.47053  -0.47007
 Alpha  occ. eigenvalues --   -0.46943  -0.46504  -0.46502  -0.46340  -0.46242
 Alpha  occ. eigenvalues --   -0.45677  -0.45630  -0.45429  -0.45227  -0.45066
 Alpha  occ. eigenvalues --   -0.44908  -0.44561  -0.44548  -0.44310  -0.44028
 Alpha  occ. eigenvalues --   -0.43990  -0.43849  -0.43502  -0.43444  -0.43325
 Alpha  occ. eigenvalues --   -0.43287  -0.43229  -0.43141  -0.42854  -0.42784
 Alpha  occ. eigenvalues --   -0.42592  -0.42507  -0.42368  -0.42160  -0.42112
 Alpha  occ. eigenvalues --   -0.42029  -0.41630  -0.41364  -0.41362  -0.41235
 Alpha  occ. eigenvalues --   -0.41014  -0.40938  -0.40906  -0.40629  -0.40531
 Alpha  occ. eigenvalues --   -0.40338  -0.40182  -0.39970  -0.39526  -0.39509
 Alpha  occ. eigenvalues --   -0.39328  -0.39289  -0.39109  -0.38799  -0.38774
 Alpha  occ. eigenvalues --   -0.38503  -0.38299  -0.38277  -0.38040  -0.37836
 Alpha  occ. eigenvalues --   -0.37809  -0.37765  -0.37709  -0.37677  -0.37636
 Alpha  occ. eigenvalues --   -0.37282  -0.37120  -0.37089  -0.36912  -0.36884
 Alpha  occ. eigenvalues --   -0.36883  -0.36846  -0.36529  -0.36453  -0.36418
 Alpha  occ. eigenvalues --   -0.36062  -0.35694  -0.35691  -0.35393  -0.35131
 Alpha  occ. eigenvalues --   -0.34757  -0.34715  -0.34503  -0.33761  -0.33484
 Alpha  occ. eigenvalues --   -0.32975  -0.32884  -0.32548  -0.32286  -0.32175
 Alpha  occ. eigenvalues --   -0.32111  -0.31991  -0.31761  -0.31503  -0.31404
 Alpha  occ. eigenvalues --   -0.31183  -0.29949  -0.29658  -0.29406  -0.29302
 Alpha  occ. eigenvalues --   -0.29043  -0.28997  -0.28385  -0.27127  -0.26900
 Alpha  occ. eigenvalues --   -0.26360  -0.26014  -0.25973  -0.25973  -0.25679
 Alpha  occ. eigenvalues --   -0.25497  -0.25460  -0.25096  -0.21323  -0.21075
 Alpha  occ. eigenvalues --   -0.18687  -0.17941
 Alpha virt. eigenvalues --   -0.11089  -0.10279  -0.05897  -0.05816  -0.04475
 Alpha virt. eigenvalues --   -0.04255  -0.02298  -0.01992  -0.00924  -0.00892
 Alpha virt. eigenvalues --    0.00046   0.00456   0.00779   0.01008   0.01019

 Mulliken charges:
               1
     1  Mg  12.000000
     2  C    6.000000
     3  C    6.000000
     4  C    6.000000
     5  C    6.000000
     6  N    7.000000
     7  C    6.000000
     8  C    6.000000
     9  C    6.000000
    10  C    6.000000
    11  C    6.000000
    12  C    6.000000
    13  C    6.000000
    14  H    1.000000
    15  N    7.000000
    16  C    6.000000
    17  C    6.000000
    18  C    6.000000
    19  C    6.000000
    20  C    6.000000
    21  C    6.000000
    22  O    8.000000
    23  C    6.000000
    24  N    7.000000
    25  C    6.000000
    26  C    6.000000
    27  C    6.000000
    28  C    6.000000
    29  C    6.000000
    30  C    6.000000
    31  C    6.000000
    32  N    7.000000
    33  C    6.000000
    34  C    6.000000
    35  C    6.000000
    36  C    6.000000
    37  C    6.000000
    38  C    6.000000
    39  O    8.000000
    40  C    6.000000
    41  C    6.000000
    42  O    8.000000
    43  O    8.000000
    44  C    6.000000
    45  H    1.000000
    46  H    1.000000
    47  H    1.000000
    48  H    1.000000
    49  H    1.000000
    50  H    1.000000
    51  H    1.000000
    52  H    1.000000
    53  H    1.000000
    54  H    1.000000
    55  H    1.000000
    56  H    1.000000
    57  H    1.000000
    58  H    1.000000
    59  H    1.000000
    60  H    1.000000
    61  H    1.000000
    62  H    1.000000
    63  H    1.000000
    64  H    1.000000
    65  H    1.000000
    66  H    1.000000
    67  H    1.000000
    68  H    1.000000
    69  H    1.000000
    70  H    1.000000
    71  H    1.000000
    72  H    1.000000
    73  H    1.000000
    74  H    1.000000
    75  H    1.000000
    76  H    1.000000
    77  H    1.000000
    78  H    1.000000
    79  H    1.000000
    80  Mg  12.000000
    81  C    6.000000
    82  C    6.000000
    83  C    6.000000
    84  C    6.000000
    85  N    7.000000
    86  C    6.000000
    87  C    6.000000
    88  C    6.000000
    89  C    6.000000
    90  C    6.000000
    91  C    6.000000
    92  C    6.000000
    93  H    1.000000
    94  N    7.000000
    95  C    6.000000
    96  C    6.000000
    97  C    6.000000
    98  C    6.000000
    99  C    6.000000
   100  C    6.000000
   101  O    8.000000
   102  C    6.000000
   103  N    7.000000
   104  C    6.000000
   105  C    6.000000
   106  C    6.000000
   107  C    6.000000
   108  C    6.000000
   109  C    6.000000
   110  C    6.000000
   111  N    7.000000
   112  C    6.000000
   113  C    6.000000
   114  C    6.000000
   115  C    6.000000
   116  C    6.000000
   117  C    6.000000
   118  O    8.000000
   119  C    6.000000
   120  C    6.000000
   121  O    8.000000
   122  O    8.000000
   123  C    6.000000
   124  H    1.000000
   125  H    1.000000
   126  H    1.000000
   127  H    1.000000
   128  H    1.000000
   129  H    1.000000
   130  H    1.000000
   131  H    1.000000
   132  H    1.000000
   133  H    1.000000
   134  H    1.000000
   135  H    1.000000
   136  H    1.000000
   137  H    1.000000
   138  H    1.000000
   139  H    1.000000
   140  H    1.000000
   141  H    1.000000
   142  H    1.000000
   143  H    1.000000
   144  H    1.000000
   145  H    1.000000
   146  H    1.000000
   147  H    1.000000
   148  H    1.000000
   149  H    1.000000
   150  H    1.000000
   151  H    1.000000
   152  H    1.000000
   153  H    1.000000
   154  H    1.000000
   155  H    1.000000
   156  H    1.000000
   157  H    1.000000
   158  H    1.000000
 Sum of Mulliken charges = 624.00000

 Dipole moment (field-independent basis, Debye):
    X=              0.0000    Y=              0.0000    Z=              0.0000  Tot=              0.0000
 Quadrupole moment (field-independent basis, Debye-Ang):
   XX=             -0.0000   YY=             -0.0000   ZZ=              0.0000
   XY=             -0.0000   XZ=             -0.0000   YZ=              0.0000

 Normal termination of Gaussian 16 at Wed Oct 13 21:45:37 2021.
