 Gaussian 16, Revision A.03,
 Gaussian 16:  ES64L-G16RevA.03 25-Dec-2016

 --------------------------------------------------------
 #p PBE1PBE/Def2SVP td=(nstates=5) density=(transition=1)
 --------------------------------------------------------

 --------------------------------
 TDDFT excited states in gaussian
 --------------------------------
 Symbolic Z-matrix:
 Charge =  0 Multiplicity = 1

                         Standard orientation:
 ---------------------------------------------------------------------
 Center     Atomic      Atomic             Coordinates (Angstroms)
 Number     Number       Type             X           Y           Z
 ---------------------------------------------------------------------
      1         12           0       26.279420    0.544214   -0.083718
      2          6           0       24.698405   -1.967356   -1.711330
      3          6           0       27.074137   -1.632661    2.503632
      4          6           0       27.855318    3.058022    1.546861
      5          6           0       25.074346    2.810210   -2.406670
      6          7           0       25.997644   -1.519832    0.222663
      7          6           0       25.292625   -2.393335   -0.539786
      8          6           0       25.452339   -3.818613   -0.078837
      9          6           0       25.971403   -3.661075    1.400779
     10          6           0       26.408781   -2.160009    1.365275
     11          6           0       25.044024   -4.063233    2.622663
     12          6           0       26.527833   -4.606558   -0.954173
     13          6           0       26.302644   -6.147198   -0.930637
     14          1           0       25.624903   -6.851002    0.256996
     15          7           0       27.275749    0.755021    1.827111
     16          6           0       27.491969   -0.317150    2.732038
     17          6           0       28.230118    0.156466    3.863904
     18          6           0       28.465875    1.556457    3.620188
     19          6           0       27.857029    1.815000    2.266539
     20          6           0       28.710942   -0.700429    4.982058
     21          6           0       29.194620    2.578504    4.485481
     22          8           0       29.263596    3.822232    4.259286
     23          6           0       29.897535    2.116823    5.750773
     24          7           0       26.390739    2.632998   -0.336079
     25          6           0       27.270615    3.458351    0.365907
     26          6           0       27.513894    4.850144   -0.286013
     27          6           0       26.593152    4.665935   -1.618709
     28          6           0       26.000933    3.310170   -1.492706
     29          6           0       27.030316    5.944377    0.674325
     30          6           0       27.317407    4.910467   -2.909672
     31          6           0       26.671548    5.958725   -3.769893
     32          7           0       25.076732    0.570693   -1.627488
     33          6           0       24.663187    1.536208   -2.536900
     34          6           0       23.817746    0.956694   -3.513803
     35          6           0       23.736551   -0.434669   -3.237823
     36          6           0       24.600971   -0.655102   -2.144788
     37          6           0       23.146643    1.598237   -4.667042
     38          6           0       23.076809   -1.672411   -3.591617
     39          8           0       22.228164   -1.994674   -4.399954
     40          6           0       23.777393   -2.728092   -2.611183
     41          6           0       22.816989   -3.729542   -2.078346
     42          8           0       21.707795   -3.512113   -1.662142
     43          8           0       23.280888   -4.988017   -2.125763
     44          6           0       22.342676   -6.011458   -1.583231
     45          1           0       27.117578   -2.346877    3.328687
     46          1           0       28.250027    3.881612    2.145351
     47          1           0       24.747127    3.435228   -3.240089
     48          1           0       24.496555   -4.331433    0.027518
     49          1           0       26.903763   -4.216789    1.495420
     50          1           0       24.143821   -4.517314    2.208319
     51          1           0       24.756106   -3.277358    3.319150
     52          1           0       25.619610   -4.762565    3.229373
     53          1           0       27.486987   -4.302526   -0.534654
     54          1           0       26.439036   -4.241179   -1.977337
     55          1           0       27.316241   -6.528471   -1.055896
     56          1           0       25.807275   -6.394050   -1.869294
     57          1           0       29.634405   -1.249043    4.796484
     58          1           0       27.881739   -1.370322    5.206103
     59          1           0       28.760979   -0.174239    5.934864
     60          1           0       29.126519    2.073066    6.519856
     61          1           0       30.598762    2.916757    5.987166
     62          1           0       30.369349    1.137783    5.665415
     63          1           0       28.594375    4.944997   -0.394676
     64          1           0       25.785414    5.397676   -1.581894
     65          1           0       26.483441    5.600136    1.552369
     66          1           0       26.510207    6.711311    0.100880
     67          1           0       27.933508    6.385760    1.096656
     68          1           0       27.349405    4.034522   -3.557724
     69          1           0       28.364985    5.190446   -2.798086
     70          1           0       27.375868    6.704340   -4.137690
     71          1           0       25.898630    6.499318   -3.224225
     72          1           0       26.144836    5.386195   -4.533928
     73          1           0       22.860383    2.642071   -4.534937
     74          1           0       22.154674    1.145641   -4.657722
     75          1           0       23.743034    1.460825   -5.569068
     76          1           0       24.377278   -3.226492   -3.373207
     77          1           0       21.542988   -6.248619   -2.286350
     78          1           0       22.007031   -5.763874   -0.576045
     79          1           0       22.896927   -6.940744   -1.449312
     80         12           0      -26.582390    0.519031    0.146794
     81          6           0      -24.190549   -1.884691    1.154574
     82          6           0      -27.791618   -1.746607   -1.897182
     83          6           0      -28.007811    3.055606   -1.423552
     84          6           0      -24.600675    2.872918    1.924543
     85          7           0      -26.074491   -1.671148   -0.130023
     86          6           0      -25.189316   -2.438222    0.393767
     87          6           0      -25.465164   -3.915223    0.044670
     88          6           0      -26.325029   -3.810506   -1.315917
     89          6           0      -26.720190   -2.281650   -1.175828
     90          6           0      -25.561602   -4.131961   -2.661291
     91          6           0      -26.358684   -4.618769    1.194248
     92          6           0      -26.175544   -6.135750    1.523425
     93          1           0      -25.691230   -7.050249    0.338526
     94          7           0      -27.909383    0.623690   -1.316445
     95          6           0      -28.334638   -0.494504   -2.017837
     96          6           0      -29.352435   -0.053411   -3.035569
     97          6           0      -29.432542    1.390378   -2.854125
     98          6           0      -28.453646    1.827256   -1.854952
     99          6           0      -29.993947   -1.045099   -3.987636
    100          6           0      -30.366048    2.345899   -3.564262
    101          8           0      -30.368371    3.574810   -3.407505
    102          6           0      -31.377267    1.794121   -4.485380
    103          7           0      -26.403823    2.739533    0.318935
    104          6           0      -27.092888    3.511071   -0.502227
    105          6           0      -27.053342    5.020909    0.005001
    106          6           0      -25.873869    4.913570    1.116040
    107          6           0      -25.632783    3.406831    1.151878
    108          6           0      -26.820268    6.066679   -1.135012
    109          6           0      -26.155311    5.486184    2.543958
    110          6           0      -25.387353    6.717387    2.951161
    111          7           0      -24.870849    0.526380    1.504040
    112          6           0      -24.224729    1.582182    2.115759
    113          6           0      -23.071105    1.125636    2.771417
    114          6           0      -23.000356   -0.225535    2.382671
    115          6           0      -24.071105   -0.569847    1.592069
    116          6           0      -22.134597    1.883360    3.570172
    117          6           0      -22.227104   -1.382422    2.619033
    118          8           0      -21.242214   -1.679168    3.348495
    119          6           0      -22.823655   -2.454178    1.599969
    120          6           0      -22.903413   -3.789299    2.244511
    121          8           0      -23.580474   -4.119736    3.215863
    122          8           0      -22.120873   -4.686096    1.450803
    123          6           0      -22.039289   -6.081363    1.901307
    124          1           0      -28.246164   -2.568200   -2.455466
    125          1           0      -28.533445    3.878740   -1.910713
    126          1           0      -24.043979    3.590749    2.531662
    127          1           0      -24.522455   -4.342299   -0.296404
    128          1           0      -27.100052   -4.575648   -1.287233
    129          1           0      -24.481982   -4.170497   -2.517860
    130          1           0      -25.712044   -3.349875   -3.405270
    131          1           0      -25.935385   -5.102426   -2.987576
    132          1           0      -27.420709   -4.442703    1.022641
    133          1           0      -26.207668   -4.064653    2.120878
    134          1           0      -27.080302   -6.615991    1.897475
    135          1           0      -25.306742   -6.207493    2.178927
    136          1           0      -31.070923   -0.895742   -4.072547
    137          1           0      -29.813040   -2.083904   -3.711401
    138          1           0      -29.464028   -1.023397   -4.939585
    139          1           0      -30.909160    1.219333   -5.285000
    140          1           0      -31.967560    2.604189   -4.913791
    141          1           0      -32.127320    1.147580   -4.029846
    142          1           0      -27.951971    5.303642    0.553176
    143          1           0      -24.914859    5.264157    0.731772
    144          1           0      -26.622629    5.560252   -2.079943
    145          1           0      -26.029053    6.672298   -0.692617
    146          1           0      -27.692216    6.719415   -1.143322
    147          1           0      -25.898708    4.705849    3.260772
    148          1           0      -27.223143    5.676500    2.653575
    149          1           0      -24.900320    7.023513    2.026266
    150          1           0      -24.613228    6.407323    3.654038
    151          1           0      -26.024374    7.534068    3.288511
    152          1           0      -22.721975    2.422674    4.312815
    153          1           0      -21.670404    2.738866    3.079440
    154          1           0      -21.444799    1.202920    4.069797
    155          1           0      -22.165801   -2.497060    0.731343
    156          1           0      -21.349878   -6.649150    1.275914
    157          1           0      -22.992978   -6.566852    1.693405
    158          1           0      -21.655313   -6.106010    2.920592
 ---------------------------------------------------------------------

 SCF Done:  E(RPBE1PBE) =  -4067.34658768     A.U. after   17 cycles

 Excitation energies and oscillator strengths:

 Excited State   1:      Singlet-A      1.8023 eV  687.94 nm  f=0.3698  <S**2>=0.000
     309 -> 316       -0.16348
     312 -> 313        0.69743
     312 <- 313       -0.11963
 This state for optimization and/or second-order correction.
 Total Energy, E(TD-HF/TD-DFT) =  -4067.28035594
 Copying the excited state density for this state as the 1-particle RhoCI density.

 Excited State   2:      Singlet-A      1.9488 eV  636.21 nm  f=0.3522  <S**2>=0.000
     310 -> 315       -0.20420
     311 -> 314        0.68090

 Excited State   3:      Singlet-A      1.9797 eV  626.27 nm  f=0.0000  <S**2>=0.000
     312 -> 314        0.70711

 Excited State   4:      Singlet-A      2.0837 eV  595.02 nm  f=0.0000  <S**2>=0.000
     311 -> 313        0.70711

 Excited State   5:      Singlet-A      2.2125 eV  560.39 nm  f=0.0816  <S**2>=0.000
     310 -> 314        0.64635
     311 -> 315        0.26591

 The electronic state is 1-A.
 Alpha  occ. eigenvalues --  -46.92779 -46.90553 -19.25764 -19.24608 -19.20395
 Alpha  occ. eigenvalues --  -19.19422 -19.19169 -19.18964 -19.18752 -19.18712
 Alpha  occ. eigenvalues --  -14.42277 -14.41645 -14.41288 -14.41139 -14.39652
 Alpha  occ. eigenvalues --  -14.39121 -14.38483 -14.38289 -10.36286 -10.35566
 Alpha  occ. eigenvalues --  -10.32326 -10.32254 -10.32194 -10.31655 -10.29263
 Alpha  occ. eigenvalues --  -10.29234 -10.29104 -10.28658 -10.28654 -10.28445
 Alpha  occ. eigenvalues --  -10.28391 -10.28387 -10.28334 -10.28296 -10.28233
 Alpha  occ. eigenvalues --  -10.28060 -10.27917 -10.27719 -10.27547 -10.26858
 Alpha  occ. eigenvalues --  -10.26831 -10.26666 -10.26505 -10.26503 -10.26478
 Alpha  occ. eigenvalues --  -10.26314 -10.26283 -10.26147 -10.26071 -10.26063
 Alpha  occ. eigenvalues --  -10.26060 -10.25994 -10.25854 -10.25477 -10.25476
 Alpha  occ. eigenvalues --  -10.25476 -10.25471 -10.25451 -10.25415 -10.25399
 Alpha  occ. eigenvalues --  -10.25352 -10.25345 -10.25206 -10.25116 -10.25093
 Alpha  occ. eigenvalues --  -10.25060 -10.24614 -10.24556 -10.24293 -10.23956
 Alpha  occ. eigenvalues --  -10.23879 -10.23851 -10.23637 -10.23617 -10.23342
 Alpha  occ. eigenvalues --  -10.23289 -10.23260 -10.23216 -10.23092 -10.23056
 Alpha  occ. eigenvalues --  -10.22992 -10.22983 -10.22973 -10.22838 -10.22553
 Alpha  occ. eigenvalues --  -10.22380  -3.14816  -3.12982  -1.87659  -1.87198
 Alpha  occ. eigenvalues --   -1.87025  -1.85816  -1.85337  -1.85253  -1.12066
 Alpha  occ. eigenvalues --   -1.08670  -1.04862  -1.04087  -1.02075  -1.02064
 Alpha  occ. eigenvalues --   -1.02027  -1.01529  -1.00426  -0.99848  -0.99086
 Alpha  occ. eigenvalues --   -0.98223  -0.98218  -0.97337  -0.96075  -0.96034
 Alpha  occ. eigenvalues --   -0.87718  -0.87359  -0.84007  -0.83823  -0.83087
 Alpha  occ. eigenvalues --   -0.82928  -0.82821  -0.82184  -0.82011  -0.81895
 Alpha  occ. eigenvalues --   -0.81633  -0.81516  -0.81107  -0.80701  -0.78646
 Alpha  occ. eigenvalues --   -0.78582  -0.78257  -0.78067  -0.76990  -0.76744
 Alpha  occ. eigenvalues --   -0.76219  -0.75871  -0.75778  -0.75377  -0.75009
 Alpha  occ. eigenvalues --   -0.74742  -0.73266  -0.72592  -0.72096  -0.72041
 Alpha  occ. eigenvalues --   -0.71631  -0.71264  -0.70827  -0.70213  -0.69578
 Alpha  occ. eigenvalues --   -0.69570  -0.67695  -0.67327  -0.66735  -0.66281
 Alpha  occ. eigenvalues --   -0.63491  -0.63398  -0.63040  -0.62939  -0.62564
 Alpha  occ. eigenvalues --   -0.62303  -0.61612  -0.61096  -0.60422  -0.60262
 Alpha  occ. eigenvalues --   -0.60082  -0.60017  -0.59778  -0.59307  -0.59150
 Alpha  occ. eigenvalues --   -0.58663  -0.56885  -0.55818  -0.55067  -0.54865
 Alpha  occ. eigenvalues --   -0.54719  -0.54430  -0.53898  -0.53531  -0.53024
 Alpha  occ. eigenvalues --   -0.52987  -0.52524  -0.52308  -0.52298  -0.51867
 Alpha  occ. eigenvalues --   -0.51480  -0.50670  -0.50333  -0.49993  -0.49855
 Alpha  occ. eigenvalues --   -0.49729  -0.49567  -0.48824  -0.48541  -0.48505
 Alpha  occ. eigenvalues --   -0.48085  -0.47948  -0.47728  -0.47596  -0.47529
 Alpha  occ. eigenvalues --   -0.47463  -0.47080  -0.47066  -0.47014  -0.46883
 Alpha  occ. eigenvalues --   -0.46658  -0.46647  -0.46590  -0.46085  -0.45879
 Alpha  occ. eigenvalues --   -0.45728  -0.45718  -0.45491  -0.45055  -0.44974
 Alpha  occ. eigenvalues --   -0.44969  -0.44636  -0.44470  -0.44411  -0.44228
 Alpha  occ. eigenvalues --   -0.44225  -0.43762  -0.43571  -0.43452  -0.43416
 Alpha  occ. eigenvalues --   -0.43252  -0.43064  -0.43030  -0.42836  -0.42678
 Alpha  occ. eigenvalues --   -0.42641  -0.42461  -0.42362  -0.42295  -0.42006
 Alpha  occ. eigenvalues --   -0.41988  -0.41818  -0.41652  -0.41522  -0.41384
 Alpha  occ. eigenvalues --   -0.41322  -0.41059  -0.41036  -0.40883  -0.40665
 Alpha  occ. eigenvalues --   -0.40295  -0.40138  -0.39969  -0.39726  -0.39723
 Alpha  occ. eigenvalues --   -0.39546  -0.39347  -0.38982  -0.38849  -0.38778
 Alpha  occ. eigenvalues --   -0.38725  -0.38692  -0.38393  -0.38384  -0.38129
 Alpha  occ. eigenvalues --   -0.38103  -0.37981  -0.37778  -0.37481  -0.37226
 Alpha  occ. eigenvalues --   -0.37131  -0.36789  -0.36766  -0.36760  -0.36464
 Alpha  occ. eigenvalues --   -0.36364  -0.36259  -0.35958  -0.35901  -0.35856
 Alpha  occ. eigenvalues --   -0.35726  -0.35638  -0.35508  -0.35324  -0.35276
 Alpha  occ. eigenvalues --   -0.35261  -0.35253  -0.35001  -0.34951  -0.33961
 Alpha  occ. eigenvalues --   -0.33486  -0.33225  -0.32973  -0.32867  -0.32638
 Alpha  occ. eigenvalues --   -0.32429  -0.32226  -0.32036  -0.31584  -0.31549
 Alpha  occ. eigenvalues --   -0.31030  -0.30666  -0.29815  -0.29780  -0.29385
 Alpha  occ. eigenvalues --   -0.28943  -0.28780  -0.28410  -0.27410  -0.26988
 Alpha  occ. eigenvalues --   -0.26036  -0.25936  -0.25929  -0.25510  -0.25423
 Alpha  occ. eigenvalues --   -0.25281  -0.25183  -0.25003  -0.21184  -0.21100
 Alpha  occ. eigenvalues --   -0.19301  -0.18691
 Alpha virt. eigenvalues --   -0.11391  -0.11162  -0.06057  -0.05121  -0.04413
 Alpha virt. eigenvalues --   -0.04076  -0.02134  -0.02123  -0.00533  -0.00020
 Alpha virt. eigenvalues --    0.00125   0.00854   0.01165   0.01208   0.01262

 Mulliken charges:
               1
     1  Mg  12.004215
     2  C    5.978426
     3  C    5.999486
     4  C    6.030777
     5  C    6.015375
     6  N    6.985595
     7  C    6.031788
     8  C    5.988316
     9  C    6.009523
    10  C    5.968324
    11  C    6.004474
    12  C    5.997417
    13  C    5.999917
    14  H    1.005838
    15  N    7.003186
    16  C    5.962122
    17  C    5.986165
    18  C    5.979004
    19  C    5.970123
    20  C    6.003699
    21  C    5.986640
    22  O    7.962190
    23  C    6.004986
    24  N    7.020047
    25  C    5.967204
    26  C    6.009270
    27  C    5.988498
    28  C    6.018135
    29  C    5.999778
    30  C    5.993652
    31  C    5.999726
    32  N    6.997303
    33  C    6.019125
    34  C    6.035181
    35  C    6.000881
    36  C    6.029401
    37  C    5.997059
    38  C    6.013829
    39  O    8.023495
    40  C    6.003475
    41  C    6.003334
    42  O    8.002096
    43  O    8.001888
    44  C    5.998552
    45  H    0.985379
    46  H    1.001344
    47  H    1.014881
    48  H    0.999134
    49  H    0.996548
    50  H    0.985107
    51  H    1.000573
    52  H    0.996758
    53  H    1.011083
    54  H    0.992755
    55  H    1.002252
    56  H    0.995670
    57  H    0.981811
    58  H    0.987197
    59  H    0.986302
    60  H    0.989933
    61  H    0.985639
    62  H    0.993073
    63  H    1.003743
    64  H    1.004122
    65  H    1.004987
    66  H    0.992583
    67  H    1.005172
    68  H    0.998222
    69  H    1.012458
    70  H    1.007149
    71  H    1.003918
    72  H    0.995998
    73  H    1.016525
    74  H    1.015362
    75  H    1.021168
    76  H    1.003492
    77  H    1.000418
    78  H    1.005003
    79  H    1.004728
    80  Mg  12.000015
    81  C    5.999980
    82  C    5.999963
    83  C    6.000034
    84  C    6.000049
    85  N    7.000011
    86  C    5.999998
    87  C    5.999991
    88  C    6.000005
    89  C    6.000003
    90  C    5.999998
    91  C    6.000005
    92  C    6.000005
    93  H    0.999985
    94  N    6.999979
    95  C    6.000040
    96  C    5.999993
    97  C    6.000020
    98  C    5.999986
    99  C    6.000001
   100  C    6.000004
   101  O    8.000009
   102  C    5.999995
   103  N    6.999989
   104  C    5.999981
   105  C    6.000001
   106  C    6.000010
   107  C    5.999982
   108  C    5.999992
   109  C    5.999999
   110  C    6.000003
   111  N    7.000008
   112  C    5.999964
   113  C    6.000008
   114  C    5.999987
   115  C    6.000016
   116  C    5.999994
   117  C    5.999988
   118  O    7.999988
   119  C    6.000002
   120  C    5.999999
   121  O    8.000020
   122  O    7.999983
   123  C    6.000002
   124  H    1.000007
   125  H    1.000003
   126  H    0.999991
   127  H    0.999988
   128  H    1.000012
   129  H    0.999984
   130  H    0.999986
   131  H    1.000003
   132  H    1.000009
   133  H    1.000011
   134  H    1.000017
   135  H    1.000003
   136  H    1.000018
   137  H    1.000008
   138  H    0.999991
   139  H    0.999989
   140  H    1.000012
   141  H    1.000016
   142  H    1.000018
   143  H    0.999981
   144  H    0.999983
   145  H    0.999998
   146  H    1.000013
   147  H    1.000013
   148  H    1.000014
   149  H    0.999982
   150  H    1.000002
   151  H    1.000013
   152  H    1.000016
   153  H    0.999977
   154  H    0.999996
   155  H    0.999971
   156  H    0.999979
   157  H    1.000007
   158  H    1.000008
 Sum of Mulliken charges = 624.00000

 Dipole moment (field-independent basis, Debye):
    X=             -5.2051    Y=              0.7813    Z=             -8.9726  Tot=             10.4024
 Quadrupole moment (field-independent basis, Debye-Ang):
   XX=           -271.1014   YY=              3.3171   ZZ=             -5.1733
   XY=             17.2148   XZ=           -236.5793   YZ=             -7.4451

 Normal termination of Gaussian 16 at Fri Oct 15 01:23:09 2021.
