 Gaussian 16, Revision A.03,
 Gaussian 16:  ES64L-G16RevA.03 25-Dec-2016

 --------------------------------------------------------
 #p PBE1PBE/Def2SVP td=(nstates=5) density=(transition=1)
 --------------------------------------------------------

 --------------------------------
 TDDFT excited states in gaussian
 --------------------------------
 Symbolic Z-matrix:
 Charge =  0 Multiplicity = 1

                         Standard orientation:
 ---------------------------------------------------------------------
 Center     Atomic      Atomic             Coordinates (Angstroms)
 Number     Number       Type             X           Y           Z
 ---------------------------------------------------------------------
      1         12           0       26.095040    0.445115   -0.240234
      2          6           0       23.332790   -1.569348    0.045589
      3          6           0       28.027166   -2.150588    0.894067
      4          6           0       28.882821    2.500815   -0.414951
      5          6           0       24.050505    3.152893   -0.953100
      6          7           0       25.734501   -1.654791    0.463592
      7          6           0       24.505628   -2.245747    0.385694
      8          6           0       24.570198   -3.638688    0.789823
      9          6           0       25.993742   -3.853900    1.278932
     10          6           0       26.668983   -2.463544    0.901139
     11          6           0       26.225062   -4.242801    2.779994
     12          6           0       24.148038   -4.599872   -0.373120
     13          6           0       23.420438   -5.928991    0.029384
     14          1           0       23.749682   -6.520681    1.413992
     15          7           0       28.188141    0.139504    0.083034
     16          6           0       28.763725   -1.033978    0.539169
     17          6           0       30.222879   -0.836405    0.654566
     18          6           0       30.496682    0.544333    0.261643
     19          6           0       29.181962    1.121631   -0.068147
     20          6           0       31.202815   -1.892267    1.139539
     21          6           0       31.845394    1.203795    0.091665
     22          8           0       31.896987    2.372439   -0.330298
     23          6           0       33.144063    0.570986    0.426432
     24          7           0       26.431125    2.548656   -0.551164
     25          6           0       27.646537    3.098408   -0.626661
     26          6           0       27.554947    4.563195   -1.085717
     27          6           0       26.001945    4.755638   -1.523757
     28          6           0       25.469436    3.357756   -1.049281
     29          6           0       28.046758    5.539437    0.026957
     30          6           0       25.755557    4.951722   -3.044828
     31          6           0       25.254866    6.341906   -3.464451
     32          7           0       24.079399    0.800634   -0.363008
     33          6           0       23.368063    1.967911   -0.650226
     34          6           0       21.914400    1.691144   -0.652313
     35          6           0       21.900498    0.306546   -0.361593
     36          6           0       23.224614   -0.177743   -0.187746
     37          6           0       20.823129    2.597767   -0.946707
     38          6           0       21.006882   -0.866198   -0.265314
     39          8           0       19.821716   -0.983444   -0.430777
     40          6           0       21.909698   -2.112875    0.045165
     41          6           0       21.391076   -2.772950    1.253926
     42          8           0       21.531495   -2.241492    2.367193
     43          8           0       20.897432   -4.026071    1.056015
     44          6           0       20.549941   -4.834693    2.220290
     45          1           0       28.613960   -2.997184    1.256583
     46          1           0       29.767398    3.141351   -0.428263
     47          1           0       23.459545    4.000507   -1.306044
     48          1           0       23.881154   -3.776348    1.623823
     49          1           0       26.537882   -4.538753    0.627515
     50          1           0       25.394599   -4.391047    3.471016
     51          1           0       26.873708   -3.487858    3.223638
     52          1           0       26.838676   -5.134915    2.907746
     53          1           0       25.007508   -4.798182   -1.013613
     54          1           0       23.571890   -4.032824   -1.104050
     55          1           0       23.615216   -6.700930   -0.715647
     56          1           0       22.342803   -5.807491    0.135053
     57          1           0       30.748179   -2.872664    1.277530
     58          1           0       31.613678   -1.627992    2.114343
     59          1           0       31.926752   -2.117444    0.356601
     60          1           0       33.916176    1.269789    0.105953
     61          1           0       33.292487   -0.398617   -0.050699
     62          1           0       33.166365    0.329659    1.489285
     63          1           0       28.118013    4.636686   -2.016215
     64          1           0       25.499254    5.533428   -0.949020
     65          1           0       28.767196    6.276146   -0.328721
     66          1           0       28.533186    4.992728    0.835253
     67          1           0       27.127456    5.978966    0.414724
     68          1           0       25.038651    4.244170   -3.459703
     69          1           0       26.656174    4.763228   -3.629585
     70          1           0       25.610273    7.085653   -2.751178
     71          1           0       24.165874    6.329521   -3.432029
     72          1           0       25.554068    6.478889   -4.502776
     73          1           0       19.902412    2.078543   -1.211846
     74          1           0       21.050957    3.301195   -1.747331
     75          1           0       20.523260    3.066287   -0.009220
     76          1           0       21.769403   -2.698184   -0.864222
     77          1           0       19.709707   -4.450016    2.798975
     78          1           0       21.426675   -5.025399    2.839143
     79          1           0       20.204442   -5.814389    1.890619
     80         12           0      -26.348238   -0.213478    0.221599
     81          6           0      -23.006947   -0.977466   -0.204461
     82          6           0      -25.569743    1.019532    3.339925
     83          6           0      -29.522313    1.085274    0.415747
     84          6           0      -27.025815   -1.362558   -2.951994
     85          7           0      -24.493853    0.177819    1.336843
     86          6           0      -23.252811   -0.300995    0.965847
     87          6           0      -22.190611   -0.006723    2.021757
     88          6           0      -23.089635    0.316284    3.272976
     89          6           0      -24.437326    0.560848    2.610025
     90          6           0      -23.089393   -0.740530    4.468540
     91          6           0      -21.133451    1.084359    1.658581
     92          6           0      -19.694819    0.739050    1.980549
     93          1           0      -19.144676    1.580800    3.121427
     94          7           0      -27.347799    0.893761    1.668287
     95          6           0      -26.880918    1.269295    2.864400
     96          6           0      -27.918663    1.926215    3.640133
     97          6           0      -29.089465    2.006573    2.904792
     98          6           0      -28.695247    1.365086    1.577605
     99          6           0      -27.648846    2.541773    5.094904
    100          6           0      -30.473408    2.557660    3.388006
    101          8           0      -30.552136    3.069295    4.540673
    102          6           0      -31.671230    2.541779    2.517610
    103          7           0      -28.035258    0.078542   -1.216205
    104          6           0      -29.236022    0.462832   -0.848967
    105          6           0      -30.305447    0.091544   -1.854904
    106          6           0      -29.574369   -0.630188   -3.037361
    107          6           0      -28.119326   -0.735260   -2.371872
    108          6           0      -31.663120   -0.507577   -1.367066
    109          6           0      -29.518852    0.022303   -4.449111
    110          6           0      -29.160708   -0.962884   -5.542514
    111          7           0      -25.225503   -1.015572   -1.316658
    112          6           0      -25.654893   -1.532675   -2.560800
    113          6           0      -24.520968   -2.144416   -3.198330
    114          6           0      -23.433377   -1.993162   -2.303911
    115          6           0      -23.941291   -1.270285   -1.228062
    116          6           0      -24.543178   -3.014661   -4.446131
    117          6           0      -22.101591   -2.312199   -2.150046
    118          8           0      -21.252072   -2.802764   -2.842671
    119          6           0      -21.689907   -1.523504   -0.800504
    120          6           0      -20.970187   -0.275925   -1.310504
    121          8           0      -21.506821    0.731936   -1.728620
    122          8           0      -19.611964   -0.534006   -1.218899
    123          6           0      -18.729808    0.494488   -1.760787
    124          1           0      -25.430594    1.240466    4.400094
    125          1           0      -30.518658    1.510785    0.550173
    126          1           0      -27.118227   -1.887276   -3.905177
    127          1           0      -21.681853   -0.944915    2.241351
    128          1           0      -22.823895    1.324446    3.593004
    129          1           0      -24.047841   -0.531566    4.943612
    130          1           0      -22.371958   -0.521793    5.259841
    131          1           0      -22.978824   -1.790413    4.197552
    132          1           0      -21.453511    1.943404    2.248596
    133          1           0      -21.207426    1.534191    0.668705
    134          1           0      -19.114391    0.892947    1.070582
    135          1           0      -19.573441   -0.299674    2.288463
    136          1           0      -26.620482    2.462234    5.449898
    137          1           0      -28.296837    2.071447    5.835254
    138          1           0      -27.771909    3.623316    5.130986
    139          1           0      -31.905076    1.514581    2.239611
    140          1           0      -31.586533    3.262454    1.704143
    141          1           0      -32.492120    2.756775    3.200601
    142          1           0      -30.705840    0.918461   -2.441777
    143          1           0      -29.798140   -1.696467   -3.077792
    144          1           0      -31.688027   -0.348280   -0.288174
    145          1           0      -31.833384   -1.535252   -1.690054
    146          1           0      -32.543387    0.011775   -1.746158
    147          1           0      -28.826426    0.859809   -4.365161
    148          1           0      -30.505211    0.468579   -4.575320
    149          1           0      -29.660019   -0.634894   -6.454565
    150          1           0      -29.466808   -1.993803   -5.360818
    151          1           0      -28.098393   -0.870286   -5.768521
    152          1           0      -23.606336   -3.538662   -4.635689
    153          1           0      -24.814852   -2.377250   -5.286561
    154          1           0      -25.319717   -3.777026   -4.382755
    155          1           0      -21.145872   -2.170737   -0.111909
    156          1           0      -18.873747    0.564817   -2.839076
    157          1           0      -17.687438    0.312471   -1.501428
    158          1           0      -19.022146    1.466999   -1.365735
 ---------------------------------------------------------------------

 SCF Done:  E(RPBE1PBE) =  -4067.41237885     A.U. after   17 cycles

 Excitation energies and oscillator strengths:

 Excited State   1:      Singlet-A      1.8858 eV  657.48 nm  f=0.3831  <S**2>=0.000
     309 -> 315        0.14474
     311 -> 313        0.69111
 This state for optimization and/or second-order correction.
 Total Energy, E(TD-HF/TD-DFT) =  -4067.34307836
 Copying the excited state density for this state as the 1-particle RhoCI density.

 Excited State   2:      Singlet-A      1.8897 eV  656.09 nm  f=0.3512  <S**2>=0.000
     310 -> 316        0.17975
     312 -> 314        0.68834
     312 <- 314       -0.10418

 Excited State   3:      Singlet-A      1.9468 eV  636.85 nm  f=0.0000  <S**2>=0.000
     312 -> 313        0.70711

 Excited State   4:      Singlet-A      2.1518 eV  576.19 nm  f=0.0000  <S**2>=0.000
     311 -> 314        0.70711

 Excited State   5:      Singlet-A      2.2566 eV  549.42 nm  f=0.0911  <S**2>=0.000
     310 -> 314        0.64103
     312 -> 316       -0.28272

 The electronic state is 1-A.
 Alpha  occ. eigenvalues --  -46.92782 -46.92269 -19.26568 -19.25306 -19.20259
 Alpha  occ. eigenvalues --  -19.20064 -19.19515 -19.19250 -19.18554 -19.18461
 Alpha  occ. eigenvalues --  -14.41709 -14.41574 -14.41306 -14.41211 -14.39965
 Alpha  occ. eigenvalues --  -14.39173 -14.38887 -14.38406 -10.36541 -10.36286
 Alpha  occ. eigenvalues --  -10.33819 -10.32041 -10.32012 -10.30929 -10.30210
 Alpha  occ. eigenvalues --  -10.29672 -10.29518 -10.28999 -10.28731 -10.28529
 Alpha  occ. eigenvalues --  -10.28458 -10.28316 -10.28316 -10.28112 -10.28108
 Alpha  occ. eigenvalues --  -10.27834 -10.27816 -10.27696 -10.27664 -10.26854
 Alpha  occ. eigenvalues --  -10.26828 -10.26807 -10.26795 -10.26366 -10.26352
 Alpha  occ. eigenvalues --  -10.26111 -10.26068 -10.26054 -10.26039 -10.26006
 Alpha  occ. eigenvalues --  -10.25817 -10.25790 -10.25631 -10.25595 -10.25517
 Alpha  occ. eigenvalues --  -10.25391 -10.25312 -10.25252 -10.25239 -10.25211
 Alpha  occ. eigenvalues --  -10.25123 -10.25073 -10.24983 -10.24766 -10.24614
 Alpha  occ. eigenvalues --  -10.24550 -10.24543 -10.24522 -10.24515 -10.24493
 Alpha  occ. eigenvalues --  -10.24443 -10.24277 -10.24108 -10.23824 -10.23686
 Alpha  occ. eigenvalues --  -10.23658 -10.23614 -10.23526 -10.23486 -10.23330
 Alpha  occ. eigenvalues --  -10.23330 -10.23106 -10.23007 -10.23004 -10.22789
 Alpha  occ. eigenvalues --  -10.21428  -3.14803  -3.14276  -1.87627  -1.87181
 Alpha  occ. eigenvalues --   -1.87139  -1.87030  -1.86634  -1.86506  -1.11178
 Alpha  occ. eigenvalues --   -1.10353  -1.05700  -1.05023  -1.03588  -1.03472
 Alpha  occ. eigenvalues --   -1.02876  -1.01894  -0.99731  -0.99153  -0.98709
 Alpha  occ. eigenvalues --   -0.98366  -0.98048  -0.97887  -0.97199  -0.95587
 Alpha  occ. eigenvalues --   -0.86827  -0.86221  -0.83463  -0.83410  -0.82747
 Alpha  occ. eigenvalues --   -0.82570  -0.82165  -0.82006  -0.81501  -0.81367
 Alpha  occ. eigenvalues --   -0.81065  -0.80564  -0.80450  -0.80348  -0.78638
 Alpha  occ. eigenvalues --   -0.78240  -0.77922  -0.77823  -0.77221  -0.76571
 Alpha  occ. eigenvalues --   -0.76340  -0.75989  -0.75508  -0.75179  -0.74891
 Alpha  occ. eigenvalues --   -0.74587  -0.72746  -0.71971  -0.71845  -0.71604
 Alpha  occ. eigenvalues --   -0.71337  -0.70917  -0.70537  -0.69738  -0.69470
 Alpha  occ. eigenvalues --   -0.69235  -0.67055  -0.66930  -0.66103  -0.65971
 Alpha  occ. eigenvalues --   -0.64076  -0.63541  -0.63470  -0.62734  -0.62469
 Alpha  occ. eigenvalues --   -0.62459  -0.61599  -0.61353  -0.60251  -0.60012
 Alpha  occ. eigenvalues --   -0.59901  -0.59842  -0.59597  -0.59206  -0.58873
 Alpha  occ. eigenvalues --   -0.58698  -0.57305  -0.56384  -0.54385  -0.54346
 Alpha  occ. eigenvalues --   -0.54137  -0.54104  -0.53768  -0.53556  -0.53210
 Alpha  occ. eigenvalues --   -0.52978  -0.52897  -0.52515  -0.52054  -0.51856
 Alpha  occ. eigenvalues --   -0.50822  -0.50678  -0.50308  -0.50117  -0.49906
 Alpha  occ. eigenvalues --   -0.49682  -0.49260  -0.48708  -0.48510  -0.48329
 Alpha  occ. eigenvalues --   -0.48081  -0.48053  -0.48017  -0.47751  -0.47602
 Alpha  occ. eigenvalues --   -0.47355  -0.47203  -0.46926  -0.46598  -0.46595
 Alpha  occ. eigenvalues --   -0.46241  -0.46191  -0.46104  -0.45809  -0.45721
 Alpha  occ. eigenvalues --   -0.45696  -0.45462  -0.45213  -0.44855  -0.44736
 Alpha  occ. eigenvalues --   -0.44530  -0.44511  -0.44407  -0.44256  -0.43966
 Alpha  occ. eigenvalues --   -0.43917  -0.43733  -0.43543  -0.43366  -0.43242
 Alpha  occ. eigenvalues --   -0.43134  -0.43042  -0.42858  -0.42754  -0.42582
 Alpha  occ. eigenvalues --   -0.42247  -0.42110  -0.42006  -0.41849  -0.41762
 Alpha  occ. eigenvalues --   -0.41593  -0.41348  -0.41250  -0.41026  -0.40945
 Alpha  occ. eigenvalues --   -0.40808  -0.40642  -0.40588  -0.40445  -0.40262
 Alpha  occ. eigenvalues --   -0.40073  -0.40012  -0.39917  -0.39905  -0.39733
 Alpha  occ. eigenvalues --   -0.39563  -0.39429  -0.39310  -0.39126  -0.38866
 Alpha  occ. eigenvalues --   -0.38793  -0.38589  -0.38498  -0.38414  -0.38307
 Alpha  occ. eigenvalues --   -0.38238  -0.37973  -0.37845  -0.37820  -0.37510
 Alpha  occ. eigenvalues --   -0.37491  -0.37370  -0.37170  -0.37058  -0.36966
 Alpha  occ. eigenvalues --   -0.36849  -0.36592  -0.36444  -0.36336  -0.35973
 Alpha  occ. eigenvalues --   -0.35835  -0.35749  -0.35533  -0.35353  -0.35258
 Alpha  occ. eigenvalues --   -0.35085  -0.34885  -0.34851  -0.34505  -0.34178
 Alpha  occ. eigenvalues --   -0.33939  -0.33149  -0.33021  -0.32468  -0.32426
 Alpha  occ. eigenvalues --   -0.32181  -0.31714  -0.31649  -0.31534  -0.31405
 Alpha  occ. eigenvalues --   -0.31067  -0.30468  -0.29633  -0.29250  -0.29247
 Alpha  occ. eigenvalues --   -0.28907  -0.28688  -0.28484  -0.27207  -0.26758
 Alpha  occ. eigenvalues --   -0.26681  -0.26381  -0.25788  -0.25662  -0.25536
 Alpha  occ. eigenvalues --   -0.25294  -0.25114  -0.24921  -0.20855  -0.20801
 Alpha  occ. eigenvalues --   -0.18934  -0.18487
 Alpha virt. eigenvalues --   -0.11081  -0.10771  -0.05461  -0.05201  -0.03902
 Alpha virt. eigenvalues --   -0.03637  -0.02503  -0.01810  -0.00917  -0.00222
 Alpha virt. eigenvalues --    0.00360   0.00902   0.01276   0.01330   0.01955

 Mulliken charges:
               1
     1  Mg  12.000043
     2  C    6.001524
     3  C    5.999881
     4  C    5.998238
     5  C    5.999833
     6  N    7.000700
     7  C    5.998075
     8  C    6.000762
     9  C    5.999783
    10  C    6.001602
    11  C    5.999944
    12  C    6.000253
    13  C    6.000044
    14  H    0.999617
    15  N    6.999597
    16  C    6.001956
    17  C    6.001546
    18  C    6.000706
    19  C    6.002075
    20  C    5.999759
    21  C    6.000670
    22  O    8.001746
    23  C    5.999776
    24  N    6.999157
    25  C    6.002123
    26  C    5.999440
    27  C    6.000607
    28  C    5.998331
    29  C    5.999836
    30  C    6.000421
    31  C    5.999946
    32  N    7.000241
    33  C    5.998145
    34  C    5.998274
    35  C    6.000022
    36  C    5.998126
    37  C    6.000235
    38  C    5.998873
    39  O    7.998335
    40  C    5.999729
    41  C    5.999890
    42  O    7.999797
    43  O    7.999913
    44  C    6.000144
    45  H    1.000792
    46  H    1.000140
    47  H    0.999143
    48  H    0.999947
    49  H    0.999971
    50  H    1.000725
    51  H    0.999780
    52  H    1.000187
    53  H    0.999448
    54  H    1.000320
    55  H    0.999857
    56  H    1.000228
    57  H    1.000976
    58  H    1.001168
    59  H    1.001086
    60  H    1.000813
    61  H    1.000349
    62  H    1.000406
    63  H    0.999898
    64  H    0.999902
    65  H    1.000036
    66  H    0.999626
    67  H    1.000576
    68  H    1.000146
    69  H    0.999258
    70  H    0.999695
    71  H    1.000165
    72  H    0.999686
    73  H    0.999075
    74  H    0.999046
    75  H    0.998804
    76  H    0.999670
    77  H    0.999938
    78  H    0.999673
    79  H    0.999758
    80  Mg  12.001064
    81  C    5.990374
    82  C    6.012935
    83  C    6.012481
    84  C    5.990590
    85  N    6.997393
    86  C    6.024110
    87  C    5.991412
    88  C    6.008491
    89  C    5.966963
    90  C    6.000745
    91  C    5.994912
    92  C    5.997630
    93  H    1.008925
    94  N    7.005023
    95  C    5.968949
    96  C    5.976821
    97  C    5.991548
    98  C    5.964536
    99  C    6.001804
   100  C    5.988407
   101  O    7.980795
   102  C    6.003761
   103  N    6.995821
   104  C    5.968724
   105  C    6.015347
   106  C    5.995767
   107  C    6.031673
   108  C    6.000574
   109  C    5.995226
   110  C    5.997924
   111  N    7.001294
   112  C    6.037367
   113  C    6.025991
   114  C    6.004794
   115  C    6.020913
   116  C    6.000725
   117  C    6.015874
   118  O    8.030139
   119  C    6.001814
   120  C    6.001850
   121  O    8.006578
   122  O    8.001611
   123  C    5.997686
   124  H    0.992581
   125  H    0.993028
   126  H    1.005163
   127  H    0.998512
   128  H    1.000237
   129  H    1.006043
   130  H    0.993490
   131  H    0.989640
   132  H    1.010178
   133  H    0.997243
   134  H    0.996647
   135  H    1.000037
   136  H    0.983065
   137  H    0.985350
   138  H    0.984144
   139  H    0.991508
   140  H    0.990970
   141  H    0.988747
   142  H    0.992386
   143  H    0.997895
   144  H    1.006269
   145  H    0.991497
   146  H    0.996973
   147  H    1.002502
   148  H    1.010090
   149  H    1.004354
   150  H    1.000829
   151  H    0.993710
   152  H    1.011838
   153  H    1.016851
   154  H    1.018271
   155  H    1.010929
   156  H    1.000589
   157  H    1.005193
   158  H    1.005882
 Sum of Mulliken charges = 624.00000

 Dipole moment (field-independent basis, Debye):
    X=              6.1335    Y=             -4.5771    Z=             -6.9690  Tot=             10.3507
 Quadrupole moment (field-independent basis, Debye-Ang):
   XX=           -256.3953   YY=              0.5344   ZZ=             -3.5977
   XY=            113.5037   XZ=            189.4631   YZ=             -0.0234

 Normal termination of Gaussian 16 at Fri Oct 15 01:56:19 2021.
