 Gaussian 16, Revision A.03,
 Gaussian 16:  ES64L-G16RevA.03 25-Dec-2016

 --------------------------------------------------------
 #p PBE1PBE/Def2SVP td=(nstates=5) density=(transition=1)
 --------------------------------------------------------

 --------------------------------
 TDDFT excited states in gaussian
 --------------------------------
 Symbolic Z-matrix:
 Charge =  0 Multiplicity = 1

                         Standard orientation:
 ---------------------------------------------------------------------
 Center     Atomic      Atomic             Coordinates (Angstroms)
 Number     Number       Type             X           Y           Z
 ---------------------------------------------------------------------
      1         12           0       20.415367   -0.852210   -0.216543
      2          6           0       21.243758    2.585870   -0.119971
      3          6           0       17.214043   -0.044098    0.788521
      4          6           0       19.732574   -4.166148   -0.034260
      5          6           0       23.733534   -1.639851   -1.028207
      6          7           0       19.479949    1.072631    0.350902
      7          6           0       19.923181    2.370572    0.108136
      8          6           0       18.793263    3.435278    0.419746
      9          6           0       17.649886    2.535855    0.960340
     10          6           0       18.135218    1.084397    0.747914
     11          6           0       17.175498    2.751220    2.446175
     12          6           0       18.446085    4.462183   -0.734652
     13          6           0       18.647972    5.906013   -0.386856
     14          1           0       17.595254    6.918730   -0.989085
     15          7           0       18.731305   -1.880272    0.308830
     16          6           0       17.477839   -1.400736    0.630722
     17          6           0       16.592882   -2.517675    0.922263
     18          6           0       17.277568   -3.745038    0.695145
     19          6           0       18.657550   -3.300967    0.275424
     20          6           0       15.093500   -2.368052    1.249578
     21          6           0       16.777128   -5.182707    0.790882
     22          8           0       17.441253   -6.151471    0.484601
     23          6           0       15.300637   -5.586729    1.196749
     24          7           0       21.616638   -2.667506   -0.404105
     25          6           0       21.100710   -3.884124   -0.287739
     26          6           0       22.170127   -5.004811   -0.545657
     27          6           0       23.413178   -4.175156   -1.058225
     28          6           0       22.900875   -2.718168   -0.848430
     29          6           0       22.368875   -5.918607    0.698098
     30          6           0       23.804659   -4.547217   -2.474646
     31          6           0       25.312165   -4.656863   -2.696293
     32          7           0       22.228723    0.156227   -0.401236
     33          6           0       23.473576   -0.264934   -0.827991
     34          6           0       24.346316    0.867457   -0.777769
     35          6           0       23.544899    2.014605   -0.555266
     36          6           0       22.222944    1.545906   -0.316243
     37          6           0       25.808473    0.851932   -1.017011
     38          6           0       23.548142    3.487466   -0.518298
     39          8           0       24.449716    4.320155   -0.544570
     40          6           0       21.906689    3.903549   -0.249667
     41          6           0       21.799911    4.701840    0.931529
     42          8           0       21.382524    4.304090    1.997528
     43          8           0       22.107573    6.016392    0.662704
     44          6           0       22.065150    6.873314    1.873731
     45          1           0       16.161717    0.172848    0.984419
     46          1           0       19.582518   -5.243552    0.055730
     47          1           0       24.719398   -1.966023   -1.367973
     48          1           0       19.143015    3.934328    1.322832
     49          1           0       16.751706    2.649662    0.353289
     50          1           0       16.088770    2.661394    2.440673
     51          1           0       17.506040    3.736617    2.773640
     52          1           0       17.569118    2.021667    3.154207
     53          1           0       17.415328    4.250276   -1.019133
     54          1           0       19.122600    4.243623   -1.561060
     55          1           0       19.622286    6.237881   -0.747972
     56          1           0       18.632822    5.907326    0.702673
     57          1           0       14.575332   -2.803249    0.395795
     58          1           0       14.827506   -1.311307    1.214906
     59          1           0       14.749912   -2.876857    2.151082
     60          1           0       14.616691   -5.090834    0.507132
     61          1           0       15.123329   -5.518397    2.270466
     62          1           0       15.293491   -6.674675    1.137369
     63          1           0       21.911586   -5.671047   -1.368448
     64          1           0       24.204883   -4.347574   -0.328865
     65          1           0       23.436562   -5.979071    0.910927
     66          1           0       21.900368   -6.897724    0.595278
     67          1           0       21.884780   -5.468022    1.562994
     68          1           0       23.396024   -3.854538   -3.209657
     69          1           0       23.368953   -5.482876   -2.828504
     70          1           0       25.869784   -4.277259   -1.840040
     71          1           0       25.539649   -4.023151   -3.553934
     72          1           0       25.617260   -5.658372   -3.000018
     73          1           0       26.271099   -0.110953   -1.233425
     74          1           0       26.247790    1.475394   -0.237363
     75          1           0       25.889640    1.272505   -2.019610
     76          1           0       21.539913    4.466754   -1.108264
     77          1           0       22.778542    6.505890    2.611742
     78          1           0       21.024339    6.884162    2.197195
     79          1           0       22.368282    7.901003    1.677396
     80         12           0      -21.275124    0.111937    0.053479
     81          6           0      -18.043212    1.280739   -0.728657
     82          6           0      -21.714573   -0.418785   -3.228268
     83          6           0      -24.027014   -1.409103    0.944630
     84          6           0      -20.213280    0.133519    3.465588
     85          7           0      -19.982212    0.366558   -1.752843
     86          6           0      -18.752787    0.918953   -1.883671
     87          6           0      -18.282865    1.024692   -3.320330
     88          6           0      -19.636437    0.712308   -4.076100
     89          6           0      -20.536400    0.165024   -2.987627
     90          6           0      -20.290448    1.952474   -4.814069
     91          6           0      -17.078549    0.146184   -3.875970
     92          6           0      -16.555279   -1.094238   -3.104183
     93          1           0      -16.011106   -2.309851   -3.943785
     94          7           0      -22.746983   -0.678346   -1.075466
     95          6           0      -22.718225   -0.910558   -2.380942
     96          6           0      -23.933279   -1.681830   -2.760349
     97          6           0      -24.713231   -1.827086   -1.498711
     98          6           0      -23.811235   -1.301688   -0.473387
     99          6           0      -24.317533   -2.005271   -4.179020
    100          6           0      -26.052568   -2.503244   -1.364440
    101          8           0      -26.609531   -2.914275   -2.379406
    102          6           0      -26.795480   -2.795834   -0.008857
    103          7           0      -22.009455   -0.676725    1.998700
    104          6           0      -23.232059   -1.082135    1.996825
    105          6           0      -23.658013   -1.318278    3.514037
    106          6           0      -22.332159   -1.046744    4.227868
    107          6           0      -21.415186   -0.496981    3.152299
    108          6           0      -24.843662   -0.527110    4.091150
    109          6           0      -21.600189   -2.382912    4.765999
    110          6           0      -21.494308   -2.539269    6.294068
    111          7           0      -19.525489    0.522942    1.186679
    112          6           0      -19.277425    0.610113    2.531071
    113          6           0      -17.992781    1.313469    2.782139
    114          6           0      -17.385288    1.495502    1.507574
    115          6           0      -18.445938    1.083604    0.589810
    116          6           0      -17.327092    1.580796    4.150537
    117          6           0      -16.249564    1.937127    0.769115
    118          8           0      -15.094780    2.279931    1.075507
    119          6           0      -16.650574    1.891325   -0.727321
    120          6           0      -16.510029    3.317584   -1.267087
    121          8           0      -15.702916    3.841145   -1.988253
    122          8           0      -17.681190    4.010823   -0.942555
    123          6           0      -17.831315    5.403321   -1.468160
    124          1           0      -21.826765   -0.588498   -4.301322
    125          1           0      -24.977689   -1.888198    1.190987
    126          1           0      -20.017988    0.371867    4.512863
    127          1           0      -18.066947    2.083833   -3.459522
    128          1           0      -19.450360   -0.029225   -4.853157
    129          1           0      -19.716329    2.860504   -4.632836
    130          1           0      -21.207712    2.083680   -4.241083
    131          1           0      -20.427734    1.720263   -5.870322
    132          1           0      -16.242925    0.827872   -4.035039
    133          1           0      -17.328389   -0.195442   -4.881018
    134          1           0      -17.397343   -1.442186   -2.505841
    135          1           0      -15.650560   -0.904516   -2.527429
    136          1           0      -25.352666   -2.330435   -4.281145
    137          1           0      -23.558282   -2.694095   -4.551264
    138          1           0      -24.105754   -1.081247   -4.718016
    139          1           0      -26.973677   -2.003079    0.718679
    140          1           0      -26.188969   -3.500224    0.560432
    141          1           0      -27.788267   -3.215566   -0.168459
    142          1           0      -23.996660   -2.340810    3.677461
    143          1           0      -22.328351   -0.394444    5.101827
    144          1           0      -25.298185    0.124923    3.345082
    145          1           0      -24.559339    0.032152    4.983120
    146          1           0      -25.674581   -1.158290    4.406260
    147          1           0      -20.571501   -2.448606    4.414268
    148          1           0      -22.163823   -3.213115    4.339796
    149          1           0      -20.603691   -3.055679    6.653008
    150          1           0      -22.339703   -3.167751    6.573962
    151          1           0      -21.518505   -1.509770    6.651553
    152          1           0      -17.756363    1.031745    4.987973
    153          1           0      -17.481890    2.647143    4.313139
    154          1           0      -16.253116    1.433553    4.039249
    155          1           0      -15.970051    1.230065   -1.262701
    156          1           0      -16.934024    6.002918   -1.619737
    157          1           0      -18.381248    5.907975   -0.674030
    158          1           0      -18.442207    5.560854   -2.357266
 ---------------------------------------------------------------------

 SCF Done:  E(RPBE1PBE) =  -4067.35971129     A.U. after   16 cycles

 Excitation energies and oscillator strengths:

 Excited State   1:      Singlet-A      1.8744 eV  661.45 nm  f=0.3712  <S**2>=0.000
     310 -> 316        0.17480
     312 -> 314        0.69051
 This state for optimization and/or second-order correction.
 Total Energy, E(TD-HF/TD-DFT) =  -4067.29082741
 Copying the excited state density for this state as the 1-particle RhoCI density.

 Excited State   2:      Singlet-A      1.9111 eV  648.74 nm  f=0.3886  <S**2>=0.000
     309 -> 315       -0.17705
     311 -> 313        0.69106
     311 <- 313       -0.10568

 Excited State   3:      Singlet-A      1.9251 eV  644.03 nm  f=0.0000  <S**2>=0.000
     312 -> 313        0.70710

 Excited State   4:      Singlet-A      2.1316 eV  581.66 nm  f=0.0000  <S**2>=0.000
     311 -> 314        0.70710

 Excited State   5:      Singlet-A      2.2446 eV  552.36 nm  f=0.1089  <S**2>=0.000
     310 -> 314        0.65154
     312 -> 316       -0.26011

 The electronic state is 1-A.
 Alpha  occ. eigenvalues --  -46.93489 -46.91638 -19.25244 -19.24992 -19.20610
 Alpha  occ. eigenvalues --  -19.19955 -19.19731 -19.19556 -19.19486 -19.18997
 Alpha  occ. eigenvalues --  -14.41860 -14.41780 -14.41333 -14.41214 -14.40041
 Alpha  occ. eigenvalues --  -14.39913 -14.39857 -14.38636 -10.36888 -10.35314
 Alpha  occ. eigenvalues --  -10.33437 -10.33221 -10.32945 -10.32697 -10.29931
 Alpha  occ. eigenvalues --  -10.29295 -10.29140 -10.29095 -10.28759 -10.28708
 Alpha  occ. eigenvalues --  -10.28690 -10.28581 -10.28535 -10.28507 -10.28301
 Alpha  occ. eigenvalues --  -10.28166 -10.27971 -10.27829 -10.27821 -10.27663
 Alpha  occ. eigenvalues --  -10.27659 -10.27341 -10.26893 -10.26772 -10.26761
 Alpha  occ. eigenvalues --  -10.26718 -10.26627 -10.26518 -10.26172 -10.26133
 Alpha  occ. eigenvalues --  -10.25924 -10.25781 -10.25709 -10.25653 -10.25619
 Alpha  occ. eigenvalues --  -10.25498 -10.25437 -10.25354 -10.25319 -10.25261
 Alpha  occ. eigenvalues --  -10.25253 -10.25177 -10.25098 -10.25068 -10.25047
 Alpha  occ. eigenvalues --  -10.24971 -10.24807 -10.24490 -10.24414 -10.24360
 Alpha  occ. eigenvalues --  -10.24173 -10.24082 -10.24066 -10.24063 -10.24022
 Alpha  occ. eigenvalues --  -10.24002 -10.23726 -10.23703 -10.23653 -10.23606
 Alpha  occ. eigenvalues --  -10.23240 -10.23208 -10.23080 -10.23043 -10.22880
 Alpha  occ. eigenvalues --  -10.22772  -3.15548  -3.13747  -1.88376  -1.87920
 Alpha  occ. eigenvalues --   -1.87774  -1.86596  -1.86114  -1.85978  -1.10787
 Alpha  occ. eigenvalues --   -1.10643  -1.05915  -1.04480  -1.04316  -1.03919
 Alpha  occ. eigenvalues --   -1.02282  -1.02095  -1.01430  -0.99460  -0.98735
 Alpha  occ. eigenvalues --   -0.98678  -0.98060  -0.96978  -0.96617  -0.95623
 Alpha  occ. eigenvalues --   -0.87879  -0.86349  -0.84202  -0.83428  -0.83212
 Alpha  occ. eigenvalues --   -0.82906  -0.82658  -0.82640  -0.82188  -0.81230
 Alpha  occ. eigenvalues --   -0.81164  -0.81138  -0.80231  -0.79922  -0.79223
 Alpha  occ. eigenvalues --   -0.78587  -0.78222  -0.77961  -0.77204  -0.76771
 Alpha  occ. eigenvalues --   -0.76056  -0.75320  -0.75146  -0.74984  -0.74814
 Alpha  occ. eigenvalues --   -0.74141  -0.72866  -0.72460  -0.72015  -0.71366
 Alpha  occ. eigenvalues --   -0.71282  -0.70975  -0.70779  -0.70079  -0.69819
 Alpha  occ. eigenvalues --   -0.69057  -0.67772  -0.66918  -0.66776  -0.65720
 Alpha  occ. eigenvalues --   -0.64043  -0.63616  -0.63302  -0.63228  -0.63094
 Alpha  occ. eigenvalues --   -0.62100  -0.61963  -0.61500  -0.61342  -0.60197
 Alpha  occ. eigenvalues --   -0.60035  -0.60028  -0.59444  -0.59320  -0.59030
 Alpha  occ. eigenvalues --   -0.58941  -0.57694  -0.55771  -0.55160  -0.54922
 Alpha  occ. eigenvalues --   -0.54385  -0.54077  -0.53783  -0.53276  -0.53212
 Alpha  occ. eigenvalues --   -0.52772  -0.52588  -0.52376  -0.51765  -0.51702
 Alpha  occ. eigenvalues --   -0.51052  -0.50471  -0.50444  -0.50257  -0.50174
 Alpha  occ. eigenvalues --   -0.49639  -0.49354  -0.49093  -0.48853  -0.48541
 Alpha  occ. eigenvalues --   -0.48306  -0.48288  -0.47716  -0.47618  -0.47562
 Alpha  occ. eigenvalues --   -0.47402  -0.47193  -0.47137  -0.46749  -0.46648
 Alpha  occ. eigenvalues --   -0.46333  -0.46274  -0.46128  -0.46030  -0.45780
 Alpha  occ. eigenvalues --   -0.45665  -0.45619  -0.45345  -0.45240  -0.45192
 Alpha  occ. eigenvalues --   -0.44836  -0.44689  -0.44449  -0.44224  -0.44106
 Alpha  occ. eigenvalues --   -0.44084  -0.43960  -0.43741  -0.43513  -0.43251
 Alpha  occ. eigenvalues --   -0.43234  -0.43174  -0.42939  -0.42890  -0.42711
 Alpha  occ. eigenvalues --   -0.42658  -0.42635  -0.42369  -0.42351  -0.42206
 Alpha  occ. eigenvalues --   -0.41920  -0.41918  -0.41723  -0.41438  -0.41380
 Alpha  occ. eigenvalues --   -0.41139  -0.41124  -0.40880  -0.40820  -0.40806
 Alpha  occ. eigenvalues --   -0.40619  -0.40263  -0.40261  -0.40152  -0.39920
 Alpha  occ. eigenvalues --   -0.39693  -0.39643  -0.39355  -0.39163  -0.39049
 Alpha  occ. eigenvalues --   -0.38871  -0.38839  -0.38661  -0.38441  -0.38427
 Alpha  occ. eigenvalues --   -0.38171  -0.38153  -0.37947  -0.37921  -0.37720
 Alpha  occ. eigenvalues --   -0.37512  -0.37371  -0.37181  -0.37079  -0.36995
 Alpha  occ. eigenvalues --   -0.36882  -0.36882  -0.36337  -0.36305  -0.36172
 Alpha  occ. eigenvalues --   -0.36057  -0.35843  -0.35626  -0.35411  -0.35174
 Alpha  occ. eigenvalues --   -0.34929  -0.34889  -0.34581  -0.34335  -0.34141
 Alpha  occ. eigenvalues --   -0.33851  -0.33621  -0.33297  -0.32728  -0.32619
 Alpha  occ. eigenvalues --   -0.32219  -0.32004  -0.31908  -0.31571  -0.31349
 Alpha  occ. eigenvalues --   -0.31222  -0.30970  -0.30089  -0.29447  -0.29287
 Alpha  occ. eigenvalues --   -0.29124  -0.28954  -0.28686  -0.27467  -0.27107
 Alpha  occ. eigenvalues --   -0.26614  -0.26184  -0.26169  -0.25924  -0.25895
 Alpha  occ. eigenvalues --   -0.25558  -0.25096  -0.24648  -0.21448  -0.20912
 Alpha  occ. eigenvalues --   -0.19216  -0.18854
 Alpha virt. eigenvalues --   -0.11460  -0.11060  -0.05561  -0.05300  -0.04810
 Alpha virt. eigenvalues --   -0.04099  -0.02685  -0.02325  -0.01480   0.00141
 Alpha virt. eigenvalues --    0.00150   0.00257   0.00486   0.01152   0.01223

 Mulliken charges:
               1
     1  Mg  12.004929
     2  C    5.981440
     3  C    6.007039
     4  C    6.016739
     5  C    5.990091
     6  N    6.987361
     7  C    6.026481
     8  C    5.989169
     9  C    6.007875
    10  C    5.968956
    11  C    6.004783
    12  C    5.998602
    13  C    5.997532
    14  H    1.005787
    15  N    7.006916
    16  C    5.967792
    17  C    5.979939
    18  C    5.983352
    19  C    5.972270
    20  C    6.001655
    21  C    5.991033
    22  O    7.973790
    23  C    6.003186
    24  N    7.000580
    25  C    5.971993
    26  C    6.008343
    27  C    5.989960
    28  C    6.027802
    29  C    6.001937
    30  C    5.996090
    31  C    5.999598
    32  N    6.998229
    33  C    6.034629
    34  C    6.027364
    35  C    6.001381
    36  C    6.031363
    37  C    5.998141
    38  C    6.014444
    39  O    8.024462
    40  C    6.010050
    41  C    6.000283
    42  O    8.010650
    43  O    8.000189
    44  C    5.997942
    45  H    0.989376
    46  H    0.995143
    47  H    1.009488
    48  H    1.003358
    49  H    0.998636
    50  H    0.999891
    51  H    0.985820
    52  H    0.999071
    53  H    1.008204
    54  H    0.995185
    55  H    0.995126
    56  H    1.001981
    57  H    0.983853
    58  H    0.984758
    59  H    0.983268
    60  H    0.994505
    61  H    0.990818
    62  H    0.987700
    63  H    0.999714
    64  H    1.001971
    65  H    0.990584
    66  H    1.002084
    67  H    1.003241
    68  H    1.000717
    69  H    1.010022
    70  H    0.997302
    71  H    0.998420
    72  H    1.005174
    73  H    1.018475
    74  H    1.016633
    75  H    1.019696
    76  H    1.006576
    77  H    1.001088
    78  H    1.006105
    79  H    1.003869
    80  Mg  11.999935
    81  C    5.999792
    82  C    6.000282
    83  C    6.000343
    84  C    5.999796
    85  N    7.000015
    86  C    6.000523
    87  C    5.999832
    88  C    6.000121
    89  C    5.999565
    90  C    6.000029
    91  C    6.000022
    92  C    5.999799
    93  H    1.000261
    94  N    7.000074
    95  C    5.999355
    96  C    5.999491
    97  C    5.999880
    98  C    5.999385
    99  C    6.000075
   100  C    5.999838
   101  O    7.999686
   102  C    6.000049
   103  N    6.999969
   104  C    5.999512
   105  C    6.000113
   106  C    5.999941
   107  C    6.000434
   108  C    6.000033
   109  C    5.999892
   110  C    6.000001
   111  N    7.000069
   112  C    6.000435
   113  C    6.000509
   114  C    6.000117
   115  C    6.000337
   116  C    5.999947
   117  C    6.000356
   118  O    8.000611
   119  C    5.999964
   120  C    6.000028
   121  O    8.000185
   122  O    7.999950
   123  C    5.999967
   124  H    0.999871
   125  H    0.999823
   126  H    1.000084
   127  H    1.000000
   128  H    0.999994
   129  H    0.999790
   130  H    1.000034
   131  H    0.999951
   132  H    1.000001
   133  H    1.000122
   134  H    1.000027
   135  H    1.000010
   136  H    0.999736
   137  H    0.999691
   138  H    0.999655
   139  H    0.999807
   140  H    0.999871
   141  H    0.999766
   142  H    0.999983
   143  H    0.999950
   144  H    1.000016
   145  H    0.999831
   146  H    0.999957
   147  H    0.999992
   148  H    1.000187
   149  H    1.000053
   150  H    1.000053
   151  H    0.999967
   152  H    1.000296
   153  H    1.000253
   154  H    1.000302
   155  H    1.000233
   156  H    1.000067
   157  H    1.000002
   158  H    1.000105
 Sum of Mulliken charges = 624.00000

 Dipole moment (field-independent basis, Debye):
    X=              8.5824    Y=              5.2002    Z=             -1.9360  Tot=             10.2200
 Quadrupole moment (field-independent basis, Debye-Ang):
   XX=            338.0232   YY=             -6.5426   ZZ=              0.1849
   XY=             95.9722   XZ=            -42.2364   YZ=              2.9695

 Normal termination of Gaussian 16 at Fri Oct 15 14:06:55 2021.
