 Gaussian 16, Revision A.03,
 Gaussian 16:  ES64L-G16RevA.03 25-Dec-2016

 ---------------------------------------------------------
 #p PBE1PBE/Def2SVP td=(nstates=5, root=1) density=current
 ---------------------------------------------------------

 --------------------------------
 TDDFT excited states in gaussian
 --------------------------------
 Symbolic Z-matrix:
 Charge =  0 Multiplicity = 1

                         Standard orientation:
 ---------------------------------------------------------------------
 Center     Atomic      Atomic             Coordinates (Angstroms)
 Number     Number       Type             X           Y           Z
 ---------------------------------------------------------------------
      1         12           0       -0.505010    0.027823   -0.266996
      2          6           0        2.858038    0.121759    0.253662
      3          6           0       -0.352174   -3.394848    0.272641
      4          6           0       -3.859644   -0.001832   -0.401699
      5          6           0       -0.641012    3.541843   -0.129392
      6          7           0        1.059104   -1.422756    0.468762
      7          6           0        2.366802   -1.106864    0.555458
      8          6           0        3.194746   -2.238410    1.044833
      9          6           0        2.172987   -3.482272    0.668909
     10          6           0        0.838372   -2.740463    0.445194
     11          6           0        2.669204   -4.327787   -0.540995
     12          6           0        3.417437   -2.101434    2.542634
     13          6           0        2.152957   -1.967041    3.511532
     14          1           0        2.131718   -2.684302    4.855587
     15          7           0       -1.911014   -1.470039   -0.090768
     16          6           0       -1.647539   -2.860578   -0.005555
     17          6           0       -2.890629   -3.532561   -0.188075
     18          6           0       -3.926099   -2.617580   -0.332839
     19          6           0       -3.290530   -1.289203   -0.326159
     20          6           0       -2.889068   -5.047690   -0.174923
     21          6           0       -5.406595   -2.906044   -0.404588
     22          8           0       -5.727864   -4.118681   -0.337394
     23          6           0       -6.453594   -1.942960   -0.331806
     24          7           0       -2.033387    1.576356   -0.044826
     25          6           0       -3.356666    1.288770   -0.207718
     26          6           0       -4.222398    2.569266   -0.133289
     27          6           0       -3.145017    3.702037   -0.043483
     28          6           0       -1.854976    2.900925    0.005628
     29          6           0       -5.183880    2.716943   -1.293160
     30          6           0       -3.388654    4.641582    1.254759
     31          6           0       -3.192335    6.138453    0.988642
     32          7           0        0.823793    1.631588    0.000833
     33          6           0        0.687261    2.972737   -0.164448
     34          6           0        2.013766    3.520848   -0.247113
     35          6           0        2.968356    2.451716   -0.132183
     36          6           0        2.174732    1.330243    0.043619
     37          6           0        2.351647    4.970713   -0.176422
     38          6           0        4.333882    2.048804   -0.027090
     39          8           0        5.300184    2.814639   -0.132516
     40          6           0        4.307617    0.546535    0.185908
     41          6           0        5.063849   -0.099496   -0.914342
     42          8           0        6.223295    0.213506   -1.100582
     43          8           0        4.382418   -1.075893   -1.574553
     44          6           0        5.126865   -1.737165   -2.648067
     45          1           0       -0.270697   -4.478443    0.165843
     46          1           0       -4.914289   -0.041288   -0.681486
     47          1           0       -0.584625    4.624827   -0.260011
     48          1           0        4.187145   -2.374264    0.614845
     49          1           0        2.181464   -4.241841    1.451711
     50          1           0        2.792524   -5.368143   -0.242304
     51          1           0        3.652142   -3.941806   -0.812396
     52          1           0        2.035846   -4.270989   -1.427235
     53          1           0        4.129243   -1.287979    2.684573
     54          1           0        4.064061   -2.952928    2.754277
     55          1           0        1.199130   -2.286790    3.091712
     56          1           0        2.173885   -0.903883    3.749253
     57          1           0       -2.951059   -5.326935    0.877043
     58          1           0       -1.935485   -5.402444   -0.563986
     59          1           0       -3.682774   -5.538358   -0.739082
     60          1           0       -7.354670   -2.357383    0.121418
     61          1           0       -6.636038   -1.423866   -1.273622
     62          1           0       -6.121549   -1.233868    0.425292
     63          1           0       -4.746932    2.455174    0.816011
     64          1           0       -3.116340    4.249215   -0.985558
     65          1           0       -5.209410    1.856070   -1.960719
     66          1           0       -5.197116    3.617718   -1.906187
     67          1           0       -6.153712    2.606076   -0.807269
     68          1           0       -2.744032    4.401783    2.100436
     69          1           0       -4.376191    4.489906    1.690131
     70          1           0       -4.173854    6.611723    0.988122
     71          1           0       -2.808626    6.255691   -0.025052
     72          1           0       -2.553999    6.622394    1.728012
     73          1           0        2.080632    5.593362   -1.028191
     74          1           0        3.429213    5.002845   -0.011069
     75          1           0        1.859595    5.466338    0.660511
     76          1           0        4.822758    0.366430    1.129913
     77          1           0        6.033310   -2.158673   -2.212620
     78          1           0        5.334270   -1.085993   -3.497370
     79          1           0        4.504621   -2.481528   -3.144677
 ---------------------------------------------------------------------

 SCF Done:  E(RPBE1PBE) =  -2033.68756803     A.U. after   15 cycles

 Excitation energies and oscillator strengths:

 Excited State   1:      Singlet-A      1.8908 eV  655.72 nm  f=0.3790  <S**2>=0.000
     155 ->158        -0.16981
     156 ->157         0.69197
     156 <-157        -0.10820
 This state for optimization and/or second-order correction.
 Total Energy, E(TD-HF/TD-DFT) =  -2033.61808244
 Copying the excited state density for this state as the 1-particle RhoCI density.

 Excited State   2:      Singlet-A      2.2080 eV  561.51 nm  f=0.1163  <S**2>=0.000
     155 ->157         0.66028
     156 ->158         0.22058

 Excited State   3:      Singlet-A      2.8261 eV  438.70 nm  f=0.0029  <S**2>=0.000
     152 ->157        -0.35984
     152 ->159         0.10908
     154 ->157         0.57893

 Excited State   4:      Singlet-A      2.8731 eV  431.54 nm  f=0.0003  <S**2>=0.000
     153 ->157         0.65704
     153 ->158         0.11584
     153 ->159         0.11446
     153 ->160         0.11911

 Excited State   5:      Singlet-A      2.9115 eV  425.85 nm  f=0.0009  <S**2>=0.000
     151 ->157        -0.22339
     152 ->157         0.54789
     152 ->159        -0.11089
     154 ->157         0.34073

 The electronic state is 1-A.
 Alpha  occ. eigenvalues --  -46.92476 -19.27058 -19.19759 -19.18685 -19.18253
 Alpha  occ. eigenvalues --  -14.41575 -14.41486 -14.39388 -14.38386 -10.36518
 Alpha  occ. eigenvalues --  -10.31824 -10.31732 -10.29979 -10.29243 -10.28742
 Alpha  occ. eigenvalues --  -10.28685 -10.28332 -10.28028 -10.27874 -10.27140
 Alpha  occ. eigenvalues --  -10.26584 -10.26264 -10.26249 -10.26221 -10.26149
 Alpha  occ. eigenvalues --  -10.26072 -10.25880 -10.25697 -10.25694 -10.24982
 Alpha  occ. eigenvalues --  -10.24912 -10.24906 -10.24890 -10.24873 -10.24683
 Alpha  occ. eigenvalues --  -10.24491 -10.23989 -10.23788 -10.23663 -10.23083
 Alpha  occ. eigenvalues --  -10.22860 -10.22568 -10.22467  -3.14511  -1.87327
 Alpha  occ. eigenvalues --   -1.86904  -1.86716  -1.12213  -1.03899  -1.02959
 Alpha  occ. eigenvalues --   -1.02889  -0.99565  -0.99147  -0.97555  -0.95983
 Alpha  occ. eigenvalues --   -0.88544  -0.83534  -0.83323  -0.83046  -0.82091
 Alpha  occ. eigenvalues --   -0.80524  -0.80182  -0.79398  -0.78456  -0.77511
 Alpha  occ. eigenvalues --   -0.77058  -0.75796  -0.75266  -0.72984  -0.72251
 Alpha  occ. eigenvalues --   -0.71389  -0.70443  -0.69285  -0.67008  -0.66554
 Alpha  occ. eigenvalues --   -0.64427  -0.63633  -0.63241  -0.61542  -0.60977
 Alpha  occ. eigenvalues --   -0.59827  -0.59759  -0.58909  -0.58410  -0.54788
 Alpha  occ. eigenvalues --   -0.54235  -0.53845  -0.53233  -0.53008  -0.52678
 Alpha  occ. eigenvalues --   -0.51296  -0.51141  -0.50424  -0.49724  -0.49144
 Alpha  occ. eigenvalues --   -0.48878  -0.48435  -0.47798  -0.47700  -0.46968
 Alpha  occ. eigenvalues --   -0.46489  -0.46431  -0.46019  -0.45789  -0.45541
 Alpha  occ. eigenvalues --   -0.44754  -0.44203  -0.44052  -0.43800  -0.43370
 Alpha  occ. eigenvalues --   -0.43361  -0.43194  -0.42768  -0.42265  -0.41766
 Alpha  occ. eigenvalues --   -0.41491  -0.41132  -0.41016  -0.40754  -0.40529
 Alpha  occ. eigenvalues --   -0.40433  -0.39986  -0.39582  -0.39482  -0.39445
 Alpha  occ. eigenvalues --   -0.39309  -0.38414  -0.38333  -0.37676  -0.37389
 Alpha  occ. eigenvalues --   -0.37152  -0.37103  -0.36775  -0.36651  -0.36093
 Alpha  occ. eigenvalues --   -0.36027  -0.35811  -0.35270  -0.34515  -0.34121
 Alpha  occ. eigenvalues --   -0.33667  -0.32810  -0.32687  -0.32470  -0.31958
 Alpha  occ. eigenvalues --   -0.31034  -0.29773  -0.29189  -0.28563  -0.27376
 Alpha  occ. eigenvalues --   -0.25591  -0.25436  -0.25361  -0.24812  -0.21204
 Alpha  occ. eigenvalues --   -0.19260
 Alpha virt. eigenvalues --   -0.11575  -0.05411  -0.04042  -0.02360  -0.01387
 Alpha virt. eigenvalues --    0.00517   0.01310   0.01867   0.03175   0.04295
 Alpha virt. eigenvalues --    0.04525   0.05339   0.05787   0.06301   0.06861

 Mulliken charges:
               1
     1  Mg   0.927996
     2  C   -0.017287
     3  C   -0.056593
     4  C   -0.091583
     5  C   -0.073642
     6  N   -0.355850
     7  C    0.053644
     8  C   -0.106132
     9  C   -0.147619
    10  C    0.100699
    11  C    0.010339
    12  C   -0.005402
    13  C   -0.151194
    14  H    0.045607
    15  N   -0.542502
    16  C    0.161982
    17  C   -0.168599
    18  C   -0.064662
    19  C    0.191080
    20  C    0.077576
    21  C    0.036093
    22  O   -0.281629
    23  C    0.006415
    24  N   -0.369248
    25  C    0.066320
    26  C   -0.085494
    27  C   -0.121124
    28  C    0.133449
    29  C    0.008660
    30  C   -0.019053
    31  C   -0.073131
    32  N   -0.474579
    33  C    0.118690
    34  C   -0.185527
    35  C    0.009713
    36  C    0.148574
    37  C    0.040029
    38  C    0.084102
    39  O   -0.215962
    40  C   -0.115557
    41  C    0.278825
    42  O   -0.231797
    43  O   -0.355511
    44  C    0.125462
    45  H    0.000371
    46  H   -0.021314
    47  H   -0.000059
    48  H    0.037420
    49  H    0.048563
    50  H    0.043952
    51  H    0.036348
    52  H    0.047187
    53  H    0.037839
    54  H    0.042715
    55  H    0.090192
    56  H    0.072781
    57  H    0.056044
    58  H    0.033443
    59  H    0.065523
    60  H    0.059232
    61  H    0.077283
    62  H    0.052239
    63  H    0.063206
    64  H    0.055966
    65  H    0.045272
    66  H    0.056019
    67  H    0.034557
    68  H    0.044602
    69  H    0.037621
    70  H    0.041619
    71  H    0.039809
    72  H    0.052648
    73  H    0.044974
    74  H    0.064411
    75  H    0.044311
    76  H    0.096172
    77  H    0.066597
    78  H    0.062858
    79  H    0.054014
 Sum of Mulliken charges =  -0.00000

 Dipole moment (field-independent basis, Debye):
    X=             -3.7518    Y=              0.1913    Z=             -1.1315  Tot=              3.9234
 Quadrupole moment (field-independent basis, Debye-Ang):
   XX=           -287.7556   YY=           -251.5152   ZZ=           -247.8442
   XY=            -59.8042   XZ=              0.8438   YZ=              3.5535

 Normal termination of Gaussian 16 at Wed Oct 13 14:37:22 2021.
