 Gaussian 16, Revision A.03,
 Gaussian 16:  ES64L-G16RevA.03 25-Dec-2016

 ---------------------------------------------------------
 #p PBE1PBE/Def2SVP td=(nstates=5, root=1) density=current
 ---------------------------------------------------------

 --------------------------------
 TDDFT excited states in gaussian
 --------------------------------
 Symbolic Z-matrix:
 Charge =  0 Multiplicity = 1

                         Standard orientation:
 ---------------------------------------------------------------------
 Center     Atomic      Atomic             Coordinates (Angstroms)
 Number     Number       Type             X           Y           Z
 ---------------------------------------------------------------------
      1         12           0        0.786632    0.073427   -0.441471
      2          6           0       -2.803923    0.236664   -0.196400
      3          6           0        0.596712   -3.260881   -0.487476
      4          6           0        4.071019    0.027316    0.222928
      5          6           0        0.798236    3.540143    0.093321
      6          7           0       -0.888493   -1.306878   -0.298210
      7          6           0       -2.266850   -1.052684   -0.400227
      8          6           0       -3.080529   -2.382558   -0.632436
      9          6           0       -1.957809   -3.463631   -0.651057
     10          6           0       -0.654294   -2.630740   -0.526413
     11          6           0       -2.030985   -4.555589    0.385897
     12          6           0       -4.017226   -2.322640   -1.954646
     13          6           0       -5.491355   -2.680183   -1.728251
     14          1           0       -5.996968   -3.889975   -2.598950
     15          7           0        2.175929   -1.422454   -0.306979
     16          6           0        1.927253   -2.735547   -0.340662
     17          6           0        3.151474   -3.520430   -0.172318
     18          6           0        4.150621   -2.532304    0.131417
     19          6           0        3.488607   -1.226631    0.041749
     20          6           0        3.193431   -4.985146   -0.267587
     21          6           0        5.607942   -2.878985    0.570558
     22          8           0        6.448928   -2.015796    0.758152
     23          6           0        6.081898   -4.283690    0.766883
     24          7           0        2.166644    1.535903    0.061702
     25          6           0        3.527978    1.271262    0.166187
     26          6           0        4.341282    2.590848    0.374541
     27          6           0        3.303104    3.705253   -0.023725
     28          6           0        2.009063    2.891781   -0.014571
     29          6           0        5.096082    2.776898    1.731034
     30          6           0        3.559835    4.345997   -1.415204
     31          6           0        3.343785    5.829147   -1.580450
     32          7           0       -0.672435    1.597779   -0.064179
     33          6           0       -0.504495    2.939615    0.128786
     34          6           0       -1.880638    3.603151    0.156644
     35          6           0       -2.796178    2.593619   -0.017601
     36          6           0       -2.020602    1.385187   -0.076246
     37          6           0       -2.063785    5.101392    0.241349
     38          6           0       -4.198564    2.228194   -0.108582
     39          8           0       -5.139744    3.047324   -0.056561
     40          6           0       -4.283859    0.587534   -0.138341
     41          6           0       -4.918321   -0.037546    1.086518
     42          8           0       -4.496610    0.226781    2.229822
     43          8           0       -6.080031   -0.748823    0.783322
     44          6           0       -6.907214   -0.984954    1.960848
     45          1           0        0.608764   -4.345128   -0.615144
     46          1           0        5.147760   -0.077393    0.369390
     47          1           0        0.883044    4.628451    0.135551
     48          1           0       -3.717707   -2.422904    0.250792
     49          1           0       -2.141967   -4.032671   -1.563347
     50          1           0       -2.862166   -4.433420    1.080514
     51          1           0       -1.147727   -4.300813    0.970616
     52          1           0       -2.112497   -5.554371   -0.043986
     53          1           0       -3.522293   -3.021243   -2.628680
     54          1           0       -3.895545   -1.349785   -2.430189
     55          1           0       -6.060492   -1.764041   -1.885937
     56          1           0       -5.630778   -2.979023   -0.688543
     57          1           0        3.587673   -5.576459    0.558274
     58          1           0        3.988166   -5.184658   -0.985500
     59          1           0        2.328465   -5.449950   -0.741266
     60          1           0        5.967361   -4.758311   -0.208389
     61          1           0        5.368509   -4.759798    1.440145
     62          1           0        7.097863   -4.199645    1.150660
     63          1           0        5.106064    2.543931   -0.400744
     64          1           0        3.175343    4.462180    0.749763
     65          1           0        4.984401    1.814882    2.230671
     66          1           0        4.754380    3.626640    2.321341
     67          1           0        6.177464    2.822560    1.596261
     68          1           0        2.821044    3.772663   -1.974854
     69          1           0        4.532540    4.118340   -1.851705
     70          1           0        4.183803    6.180773   -2.179589
     71          1           0        3.375154    6.374669   -0.636754
     72          1           0        2.476341    5.932024   -2.232882
     73          1           0       -1.069637    5.541793    0.315422
     74          1           0       -2.562284    5.327981    1.183559
     75          1           0       -2.668164    5.443829   -0.598387
     76          1           0       -4.784150    0.288726   -1.059499
     77          1           0       -7.847746   -0.436430    1.987237
     78          1           0       -6.397993   -0.802317    2.907232
     79          1           0       -7.147656   -2.047753    1.951564
 ---------------------------------------------------------------------

 SCF Done:  E(RPBE1PBE) =  -2033.67641415     A.U. after   16 cycles

 Excitation energies and oscillator strengths:

 Excited State   1:      Singlet-A      1.8518 eV  669.54 nm  f=0.4069  <S**2>=0.000
     155 ->158         0.16668
     156 ->157         0.69630
     156 <-157        -0.11426
 This state for optimization and/or second-order correction.
 Total Energy, E(TD-HF/TD-DFT) =  -2033.60836253
 Copying the excited state density for this state as the 1-particle RhoCI density.

 Excited State   2:      Singlet-A      2.2899 eV  541.44 nm  f=0.0909  <S**2>=0.000
     155 ->157         0.64384
     156 ->158        -0.28562

 Excited State   3:      Singlet-A      3.1380 eV  395.11 nm  f=0.0002  <S**2>=0.000
     151 ->157         0.42237
     151 ->159         0.19653
     152 ->157        -0.41555
     152 ->159        -0.10517
     153 ->157        -0.14941
     154 ->157         0.25318

 Excited State   4:      Singlet-A      3.1761 eV  390.36 nm  f=0.0001  <S**2>=0.000
     151 ->157        -0.13877
     152 ->157         0.11336
     153 ->157         0.24407
     154 ->157         0.61428

 Excited State   5:      Singlet-A      3.2154 eV  385.59 nm  f=0.0007  <S**2>=0.000
     151 ->157         0.12697
     152 ->157        -0.17841
     153 ->157         0.61974
     154 ->157        -0.19561

 The electronic state is 1-A.
 Alpha  occ. eigenvalues --  -46.91821 -19.27247 -19.20979 -19.20046 -19.18886
 Alpha  occ. eigenvalues --  -14.42077 -14.41245 -14.39280 -14.39085 -10.37749
 Alpha  occ. eigenvalues --  -10.33563 -10.32205 -10.29298 -10.28908 -10.28811
 Alpha  occ. eigenvalues --  -10.28268 -10.28021 -10.27978 -10.27620 -10.27451
 Alpha  occ. eigenvalues --  -10.27387 -10.26732 -10.26482 -10.26409 -10.26374
 Alpha  occ. eigenvalues --  -10.26088 -10.25783 -10.25531 -10.25359 -10.25219
 Alpha  occ. eigenvalues --  -10.25126 -10.24883 -10.24644 -10.24630 -10.24159
 Alpha  occ. eigenvalues --  -10.23542 -10.23539 -10.23472 -10.23308 -10.23065
 Alpha  occ. eigenvalues --  -10.22998 -10.22948 -10.22853  -3.14046  -1.86868
 Alpha  occ. eigenvalues --   -1.86405  -1.86297  -1.11002  -1.04970  -1.03655
 Alpha  occ. eigenvalues --   -1.02648  -0.98584  -0.97998  -0.97249  -0.96535
 Alpha  occ. eigenvalues --   -0.86888  -0.83446  -0.83014  -0.82393  -0.81638
 Alpha  occ. eigenvalues --   -0.81579  -0.80401  -0.78584  -0.77924  -0.76986
 Alpha  occ. eigenvalues --   -0.76177  -0.75506  -0.74560  -0.72828  -0.71915
 Alpha  occ. eigenvalues --   -0.71216  -0.70488  -0.69150  -0.66859  -0.65458
 Alpha  occ. eigenvalues --   -0.63425  -0.62796  -0.62196  -0.61200  -0.59760
 Alpha  occ. eigenvalues --   -0.59485  -0.59419  -0.58900  -0.57147  -0.54923
 Alpha  occ. eigenvalues --   -0.54283  -0.53297  -0.53140  -0.52905  -0.51960
 Alpha  occ. eigenvalues --   -0.50865  -0.49936  -0.49653  -0.49327  -0.48381
 Alpha  occ. eigenvalues --   -0.48169  -0.47709  -0.47232  -0.46892  -0.46439
 Alpha  occ. eigenvalues --   -0.46206  -0.46053  -0.45928  -0.45719  -0.45320
 Alpha  occ. eigenvalues --   -0.44907  -0.44143  -0.43955  -0.43865  -0.43408
 Alpha  occ. eigenvalues --   -0.43304  -0.42989  -0.42807  -0.42622  -0.41915
 Alpha  occ. eigenvalues --   -0.41706  -0.41523  -0.41184  -0.40816  -0.40695
 Alpha  occ. eigenvalues --   -0.40441  -0.40096  -0.39324  -0.39108  -0.38897
 Alpha  occ. eigenvalues --   -0.38864  -0.38612  -0.38432  -0.37927  -0.37842
 Alpha  occ. eigenvalues --   -0.37620  -0.37468  -0.36639  -0.36587  -0.36008
 Alpha  occ. eigenvalues --   -0.35669  -0.35531  -0.35085  -0.34432  -0.34070
 Alpha  occ. eigenvalues --   -0.33306  -0.32822  -0.32473  -0.32270  -0.31526
 Alpha  occ. eigenvalues --   -0.31146  -0.29826  -0.29647  -0.28552  -0.27095
 Alpha  occ. eigenvalues --   -0.26369  -0.25888  -0.25617  -0.25445  -0.21072
 Alpha  occ. eigenvalues --   -0.18460
 Alpha virt. eigenvalues --   -0.10940  -0.04855  -0.04292  -0.02267  -0.01703
 Alpha virt. eigenvalues --   -0.00814   0.00355   0.01285   0.03442   0.04256
 Alpha virt. eigenvalues --    0.04899   0.05854   0.06207   0.06408   0.06715

 Mulliken charges:
               1
     1  Mg   0.975645
     2  C   -0.104476
     3  C   -0.074813
     4  C   -0.079399
     5  C   -0.089775
     6  N   -0.414393
     7  C    0.034058
     8  C   -0.100553
     9  C   -0.133745
    10  C    0.126204
    11  C    0.013931
    12  C   -0.006407
    13  C   -0.126172
    14  H    0.034529
    15  N   -0.491684
    16  C    0.132002
    17  C   -0.160715
    18  C   -0.080726
    19  C    0.133449
    20  C    0.057822
    21  C    0.034444
    22  O   -0.244770
    23  C   -0.004129
    24  N   -0.441598
    25  C    0.118187
    26  C   -0.082461
    27  C   -0.133255
    28  C    0.078933
    29  C    0.024527
    30  C   -0.027496
    31  C   -0.041136
    32  N   -0.425611
    33  C    0.160962
    34  C   -0.236278
    35  C    0.013574
    36  C    0.171173
    37  C    0.085007
    38  C    0.158799
    39  O   -0.237611
    40  C   -0.075249
    41  C    0.310110
    42  O   -0.262145
    43  O   -0.369697
    44  C    0.105754
    45  H   -0.004604
    46  H    0.021345
    47  H    0.003342
    48  H    0.065023
    49  H    0.048346
    50  H    0.035922
    51  H    0.051418
    52  H    0.048169
    53  H    0.040634
    54  H    0.048674
    55  H    0.071112
    56  H    0.062482
    57  H    0.051854
    58  H    0.037111
    59  H    0.045573
    60  H    0.056139
    61  H    0.059073
    62  H    0.068029
    63  H    0.045180
    64  H    0.043796
    65  H    0.047854
    66  H    0.051795
    67  H    0.042060
    68  H    0.041604
    69  H    0.042496
    70  H    0.034947
    71  H    0.047948
    72  H    0.050410
    73  H    0.027801
    74  H    0.063087
    75  H    0.070532
    76  H    0.066340
    77  H    0.066900
    78  H    0.075426
    79  H    0.047371
 Sum of Mulliken charges =  -0.00000

 Dipole moment (field-independent basis, Debye):
    X=              1.2766    Y=             -3.0274    Z=             -2.5075  Tot=              4.1330
 Quadrupole moment (field-independent basis, Debye-Ang):
   XX=           -272.3519   YY=           -225.5650   ZZ=           -257.3799
   XY=             26.2365   XZ=             -6.0826   YZ=             -1.0763

 Normal termination of Gaussian 16 at Wed Oct 13 14:26:07 2021.
