 Gaussian 16, Revision A.03,
 Gaussian 16:  ES64L-G16RevA.03 25-Dec-2016

 --------------------------------------------------------
 #p PBE1PBE/Def2SVP td=(nstates=5) density=(transition=1)
 --------------------------------------------------------

 --------------------------------
 TDDFT excited states in gaussian
 --------------------------------
 Symbolic Z-matrix:
 Charge =  0 Multiplicity = 1

                         Standard orientation:
 ---------------------------------------------------------------------
 Center     Atomic      Atomic             Coordinates (Angstroms)
 Number     Number       Type             X           Y           Z
 ---------------------------------------------------------------------
      1         12           0      -13.415985    0.663963   -0.025654
      2          6           0      -11.654236   -1.812591   -1.572447
      3          6           0      -14.693598   -1.758698    2.213170
      4          6           0      -15.339812    3.019538    1.375556
      5          6           0      -12.059712    2.937422   -2.214417
      6          7           0      -13.458552   -1.554451    0.102438
      7          6           0      -12.539441   -2.346331   -0.597720
      8          6           0      -12.619290   -3.840778   -0.175574
      9          6           0      -13.653225   -3.712290    0.974498
     10          6           0      -14.027974   -2.245350    1.083951
     11          6           0      -14.956782   -4.617893    1.025897
     12          6           0      -11.261435   -4.526677    0.293812
     13          6           0      -11.475092   -6.002864    0.723583
     14          1           0      -10.900064   -7.011098   -0.272235
     15          7           0      -14.817328    0.630794    1.644770
     16          6           0      -14.987382   -0.406888    2.535853
     17          6           0      -15.993654    0.050450    3.486991
     18          6           0      -16.179176    1.446163    3.225628
     19          6           0      -15.422312    1.780898    2.060566
     20          6           0      -16.536280   -0.861880    4.518410
     21          6           0      -17.191927    2.339437    4.023740
     22          8           0      -17.519939    3.492056    3.676168
     23          6           0      -17.885174    1.785955    5.241343
     24          7           0      -13.673670    2.571972   -0.367261
     25          6           0      -14.568270    3.413470    0.352011
     26          6           0      -14.740799    4.742801   -0.347275
     27          6           0      -13.415890    4.814402   -1.104029
     28          6           0      -12.961646    3.365891   -1.214470
     29          6           0      -15.986946    4.778644   -1.294421
     30          6           0      -12.328552    5.596692   -0.333961
     31          6           0      -12.280535    7.093611   -0.483668
     32          7           0      -12.138612    0.674905   -1.643900
     33          6           0      -11.551858    1.659860   -2.342958
     34          6           0      -10.674924    1.089944   -3.322765
     35          6           0      -10.652747   -0.263912   -3.063136
     36          6           0      -11.535386   -0.472449   -1.991965
     37          6           0       -9.912785    1.920101   -4.295864
     38          6           0      -10.074518   -1.471265   -3.474836
     39          8           0       -9.244997   -1.721884   -4.327750
     40          6           0      -10.713411   -2.566191   -2.497854
     41          6           0      -11.375982   -3.598184   -3.340005
     42          8           0      -12.357697   -3.458106   -4.028043
     43          8           0      -10.834535   -4.803961   -3.142993
     44          6           0      -11.458040   -5.953117   -3.905845
     45          1           0      -14.918916   -2.527585    2.954932
     46          1           0      -15.956340    3.799708    1.826508
     47          1           0      -11.492527    3.611411   -2.859232
     48          1           0      -13.049444   -4.409091   -1.000311
     49          1           0      -13.162385   -3.914721    1.926913
     50          1           0      -15.278437   -4.945940    2.014700
     51          1           0      -14.891199   -5.402003    0.271385
     52          1           0      -15.758189   -3.941071    0.729958
     53          1           0      -10.903213   -3.861213    1.078306
     54          1           0      -10.552770   -4.478351   -0.532862
     55          1           0      -12.523765   -6.170404    0.969185
     56          1           0      -10.903467   -6.141850    1.640734
     57          1           0      -17.581431   -1.055763    4.276467
     58          1           0      -16.302140   -0.397771    5.476485
     59          1           0      -15.984451   -1.801875    4.532641
     60          1           0      -18.500955    2.559230    5.700656
     61          1           0      -17.072073    1.617720    5.948839
     62          1           0      -18.459330    0.869019    5.111004
     63          1           0      -14.857373    5.554174    0.371719
     64          1           0      -13.511003    5.234405   -2.105144
     65          1           0      -15.806089    4.205410   -2.202872
     66          1           0      -16.247230    5.808986   -1.538251
     67          1           0      -16.800474    4.344213   -0.714483
     68          1           0      -11.323190    5.222040   -0.522038
     69          1           0      -12.407361    5.374211    0.730271
     70          1           0      -12.417164    7.509608    0.514111
     71          1           0      -13.208869    7.315958   -1.010070
     72          1           0      -11.409911    7.468248   -1.022209
     73          1           0       -8.899982    2.093453   -3.934246
     74          1           0      -10.376031    2.831292   -4.675576
     75          1           0       -9.800344    1.287932   -5.176841
     76          1           0       -9.907481   -3.019077   -1.919927
     77          1           0      -12.532109   -5.908730   -3.724212
     78          1           0      -11.125005   -6.931284   -3.557904
     79          1           0      -11.229521   -5.812114   -4.962482
     80         12           0       13.568462    0.597853   -0.057189
     81          6           0       11.171827   -1.787743    0.550172
     82          6           0       15.969310   -2.019893   -0.264452
     83          6           0       16.110074    2.826073   -0.127316
     84          6           0       11.366014    3.072222    0.469464
     85          7           0       13.558633   -1.656295    0.129531
     86          6           0       12.428637   -2.381395    0.397301
     87          6           0       12.715405   -3.883911    0.350923
     88          6           0       14.312211   -3.879466    0.283464
     89          6           0       14.647317   -2.437539    0.037066
     90          6           0       15.011819   -4.528568    1.533631
     91          6           0       12.055485   -4.624352   -0.900489
     92          6           0       11.361117   -5.959818   -0.783127
     93          1           0       12.036941   -7.044430   -0.021917
     94          7           0       15.765235    0.458367   -0.232429
     95          6           0       16.498181   -0.649596   -0.479213
     96          6           0       17.849883   -0.322270   -0.787778
     97          6           0       17.920893    1.106575   -0.788280
     98          6           0       16.567640    1.506130   -0.298997
     99          6           0       18.828544   -1.434425   -0.986154
    100          6           0       19.134685    1.998740   -0.984961
    101          8           0       19.129630    3.197438   -0.688014
    102          6           0       20.423616    1.424161   -1.545982
    103          7           0       13.753294    2.689710    0.297715
    104          6           0       14.898243    3.388282    0.078376
    105          6           0       14.629101    4.891673    0.115889
    106          6           0       13.054133    4.946155    0.132755
    107          6           0       12.689057    3.484629    0.302514
    108          6           0       15.321788    5.810506    1.165234
    109          6           0       12.351981    5.673640   -1.088784
    110          6           0       11.908439    4.882088   -2.300832
    111          7           0       11.703082    0.677358    0.505469
    112          6           0       10.827241    1.731788    0.559870
    113          6           0        9.514187    1.354782    0.938000
    114          6           0        9.579455   -0.034525    0.900099
    115          6           0       10.921139   -0.393627    0.611101
    116          6           0        8.239409    2.143450    1.207969
    117          6           0        8.871410   -1.225988    1.076797
    118          8           0        7.709252   -1.368588    1.409669
    119          6           0        9.872204   -2.498516    0.882334
    120          6           0        9.886283   -3.250366    2.131083
    121          8           0       10.322338   -2.842478    3.225828
    122          8           0        9.314456   -4.479371    2.029039
    123          6           0        8.975678   -5.207471    3.256987
    124          1           0       16.594582   -2.905630   -0.391799
    125          1           0       16.852217    3.568304   -0.427910
    126          1           0       10.576729    3.802460    0.282995
    127          1           0       12.266860   -4.346100    1.231219
    128          1           0       14.676779   -4.489972   -0.542828
    129          1           0       15.615284   -5.362876    1.177702
    130          1           0       14.191929   -4.771191    2.209881
    131          1           0       15.761465   -3.906558    2.023689
    132          1           0       12.918244   -4.731900   -1.558129
    133          1           0       11.457286   -3.932348   -1.492329
    134          1           0       11.046056   -6.303472   -1.768362
    135          1           0       10.476077   -5.771475   -0.176475
    136          1           0       19.390417   -1.153498   -1.876182
    137          1           0       18.313875   -2.364385   -1.229065
    138          1           0       19.510287   -1.631565   -0.158128
    139          1           0       20.277479    0.736971   -2.379881
    140          1           0       21.059412    1.083608   -0.727587
    141          1           0       20.930527    2.286887   -1.979296
    142          1           0       15.083864    5.243292   -0.810457
    143          1           0       12.662516    5.574218    0.932045
    144          1           0       14.596243    6.156675    1.901200
    145          1           0       15.700564    6.670096    0.612552
    146          1           0       16.114914    5.207436    1.605859
    147          1           0       13.049043    6.436293   -1.433339
    148          1           0       11.450288    6.181245   -0.745418
    149          1           0       12.292511    5.309528   -3.227353
    150          1           0       10.825055    4.794002   -2.392432
    151          1           0       12.322864    3.885687   -2.147306
    152          1           0        8.432611    3.202587    1.033403
    153          1           0        7.918428    1.963506    2.234286
    154          1           0        7.464361    1.788994    0.529020
    155          1           0        9.318408   -3.062088    0.130910
    156          1           0        8.187579   -5.949852    3.130261
    157          1           0        8.802709   -4.589557    4.137591
    158          1           0        9.831786   -5.857190    3.439426
 ---------------------------------------------------------------------

 SCF Done:  E(RPBE1PBE) =  -4067.42294973     A.U. after   17 cycles

 Excitation energies and oscillator strengths:

 Excited State   1:      Singlet-A      1.8105 eV  684.80 nm  f=0.3911  <S**2>=0.000
     309 -> 315       -0.15505
     312 -> 313        0.69928
     312 <- 313       -0.12505
 This state for optimization and/or second-order correction.
 Total Energy, E(TD-HF/TD-DFT) =  -4067.35641430
 Copying the excited state density for this state as the 1-particle RhoCI density.

 Excited State   2:      Singlet-A      1.8495 eV  670.36 nm  f=0.0000  <S**2>=0.000
     312 -> 314        0.70710

 Excited State   3:      Singlet-A      1.8776 eV  660.34 nm  f=0.3824  <S**2>=0.000
     310 -> 316       -0.17160
     311 -> 314        0.69312
     311 <- 314       -0.11023

 Excited State   4:      Singlet-A      1.9302 eV  642.34 nm  f=0.0000  <S**2>=0.000
     311 -> 313        0.70710

 Excited State   5:      Singlet-A      2.2058 eV  562.09 nm  f=0.1632  <S**2>=0.000
     310 -> 314        0.67013
     311 -> 316        0.21433

 The electronic state is 1-A.
 Alpha  occ. eigenvalues --  -46.92498 -46.90865 -19.25692 -19.25457 -19.19438
 Alpha  occ. eigenvalues --  -19.19043 -19.18915 -19.18851 -19.18849 -19.18745
 Alpha  occ. eigenvalues --  -14.42107 -14.41618 -14.41332 -14.41038 -14.39173
 Alpha  occ. eigenvalues --  -14.39146 -14.38560 -14.38422 -10.35914 -10.35415
 Alpha  occ. eigenvalues --  -10.32447 -10.32439 -10.31914 -10.31726 -10.29725
 Alpha  occ. eigenvalues --  -10.29443 -10.28993 -10.28854 -10.28817 -10.28522
 Alpha  occ. eigenvalues --  -10.28333 -10.28193 -10.27806 -10.27782 -10.27685
 Alpha  occ. eigenvalues --  -10.27684 -10.27674 -10.27298 -10.27116 -10.26929
 Alpha  occ. eigenvalues --  -10.26735 -10.26527 -10.26489 -10.26350 -10.26288
 Alpha  occ. eigenvalues --  -10.26153 -10.26051 -10.25924 -10.25905 -10.25814
 Alpha  occ. eigenvalues --  -10.25788 -10.25743 -10.25573 -10.25571 -10.25563
 Alpha  occ. eigenvalues --  -10.25558 -10.25362 -10.25349 -10.25187 -10.25137
 Alpha  occ. eigenvalues --  -10.25134 -10.25036 -10.24914 -10.24909 -10.24511
 Alpha  occ. eigenvalues --  -10.24475 -10.24287 -10.24269 -10.24240 -10.24023
 Alpha  occ. eigenvalues --  -10.23978 -10.23882 -10.23878 -10.23548 -10.23481
 Alpha  occ. eigenvalues --  -10.23399 -10.23247 -10.23219 -10.23199 -10.23164
 Alpha  occ. eigenvalues --  -10.23162 -10.22823 -10.22519 -10.22487 -10.22442
 Alpha  occ. eigenvalues --  -10.22410  -3.14687  -3.13220  -1.87510  -1.87022
 Alpha  occ. eigenvalues --   -1.86959  -1.86065  -1.85613  -1.85441  -1.11583
 Alpha  occ. eigenvalues --   -1.10612  -1.05030  -1.04707  -1.04128  -1.03064
 Alpha  occ. eigenvalues --   -1.01859  -1.00618  -1.00088  -1.00016  -0.99320
 Alpha  occ. eigenvalues --   -0.98775  -0.98485  -0.98126  -0.97699  -0.96686
 Alpha  occ. eigenvalues --   -0.87575  -0.86988  -0.83354  -0.83315  -0.83089
 Alpha  occ. eigenvalues --   -0.82893  -0.82530  -0.82452  -0.82167  -0.82157
 Alpha  occ. eigenvalues --   -0.81688  -0.81456  -0.80860  -0.80733  -0.78602
 Alpha  occ. eigenvalues --   -0.78577  -0.78233  -0.78035  -0.76931  -0.76768
 Alpha  occ. eigenvalues --   -0.76003  -0.75785  -0.75492  -0.75467  -0.74875
 Alpha  occ. eigenvalues --   -0.74603  -0.72706  -0.72664  -0.71828  -0.71798
 Alpha  occ. eigenvalues --   -0.71482  -0.71402  -0.70546  -0.70436  -0.69846
 Alpha  occ. eigenvalues --   -0.69555  -0.68009  -0.67603  -0.66224  -0.65988
 Alpha  occ. eigenvalues --   -0.64015  -0.63834  -0.63646  -0.63279  -0.62635
 Alpha  occ. eigenvalues --   -0.62557  -0.61532  -0.60525  -0.60201  -0.60034
 Alpha  occ. eigenvalues --   -0.59679  -0.59367  -0.59233  -0.59157  -0.58764
 Alpha  occ. eigenvalues --   -0.58661  -0.56843  -0.56589  -0.54776  -0.54720
 Alpha  occ. eigenvalues --   -0.54544  -0.54406  -0.53675  -0.53649  -0.53461
 Alpha  occ. eigenvalues --   -0.52866  -0.52861  -0.52437  -0.52371  -0.51883
 Alpha  occ. eigenvalues --   -0.51110  -0.50846  -0.50420  -0.49864  -0.49627
 Alpha  occ. eigenvalues --   -0.49585  -0.49329  -0.49197  -0.48786  -0.48605
 Alpha  occ. eigenvalues --   -0.47987  -0.47950  -0.47857  -0.47765  -0.47363
 Alpha  occ. eigenvalues --   -0.47244  -0.47230  -0.47118  -0.46771  -0.46755
 Alpha  occ. eigenvalues --   -0.46616  -0.46272  -0.46247  -0.45985  -0.45863
 Alpha  occ. eigenvalues --   -0.45384  -0.45060  -0.44973  -0.44854  -0.44815
 Alpha  occ. eigenvalues --   -0.44553  -0.44463  -0.44411  -0.44236  -0.44148
 Alpha  occ. eigenvalues --   -0.43870  -0.43785  -0.43669  -0.43543  -0.43414
 Alpha  occ. eigenvalues --   -0.43370  -0.43370  -0.43167  -0.42933  -0.42809
 Alpha  occ. eigenvalues --   -0.42700  -0.42525  -0.42334  -0.42132  -0.42111
 Alpha  occ. eigenvalues --   -0.41815  -0.41806  -0.41596  -0.41570  -0.41293
 Alpha  occ. eigenvalues --   -0.41204  -0.41085  -0.40930  -0.40812  -0.40718
 Alpha  occ. eigenvalues --   -0.40609  -0.40520  -0.40144  -0.40095  -0.39910
 Alpha  occ. eigenvalues --   -0.39755  -0.39393  -0.39229  -0.38960  -0.38834
 Alpha  occ. eigenvalues --   -0.38772  -0.38535  -0.38525  -0.38390  -0.38308
 Alpha  occ. eigenvalues --   -0.38200  -0.38179  -0.37968  -0.37736  -0.37669
 Alpha  occ. eigenvalues --   -0.37119  -0.36845  -0.36775  -0.36677  -0.36571
 Alpha  occ. eigenvalues --   -0.36506  -0.36361  -0.36320  -0.36183  -0.36000
 Alpha  occ. eigenvalues --   -0.35954  -0.35750  -0.35549  -0.35464  -0.35292
 Alpha  occ. eigenvalues --   -0.34957  -0.34886  -0.34746  -0.34701  -0.34471
 Alpha  occ. eigenvalues --   -0.33430  -0.33327  -0.33205  -0.32935  -0.32437
 Alpha  occ. eigenvalues --   -0.32319  -0.31943  -0.31666  -0.31641  -0.31462
 Alpha  occ. eigenvalues --   -0.31110  -0.30579  -0.29740  -0.29457  -0.29074
 Alpha  occ. eigenvalues --   -0.28638  -0.28435  -0.28000  -0.27027  -0.26980
 Alpha  occ. eigenvalues --   -0.26533  -0.26163  -0.26119  -0.25949  -0.25549
 Alpha  occ. eigenvalues --   -0.25390  -0.25379  -0.24776  -0.21428  -0.20822
 Alpha  occ. eigenvalues --   -0.19068  -0.18748
 Alpha virt. eigenvalues --   -0.11478  -0.11460  -0.05071  -0.04777  -0.03934
 Alpha virt. eigenvalues --   -0.03799  -0.02031  -0.01925  -0.00964   0.00161
 Alpha virt. eigenvalues --    0.00233   0.01038   0.01406   0.01761   0.01821

 Mulliken charges:
               1
     1  Mg  11.998533
     2  C    5.975396
     3  C    5.995530
     4  C    6.029409
     5  C    6.013573
     6  N    6.988208
     7  C    6.039021
     8  C    5.985230
     9  C    6.006594
    10  C    5.975333
    11  C    6.004239
    12  C    5.997201
    13  C    6.002534
    14  H    0.995890
    15  N    7.005847
    16  C    5.963926
    17  C    5.976355
    18  C    5.992452
    19  C    5.955474
    20  C    6.004666
    21  C    5.987356
    22  O    7.974922
    23  C    6.005545
    24  N    7.017405
    25  C    5.961507
    26  C    6.008022
    27  C    5.994819
    28  C    6.020789
    29  C    6.001102
    30  C    5.992653
    31  C    5.999373
    32  N    6.996490
    33  C    6.022678
    34  C    6.035477
    35  C    5.998430
    36  C    6.031342
    37  C    5.995947
    38  C    6.015235
    39  O    8.026315
    40  C    6.002715
    41  C    6.001722
    42  O    8.003973
    43  O    8.001694
    44  C    5.999129
    45  H    0.983619
    46  H    0.995768
    47  H    1.013974
    48  H    1.001912
    49  H    0.998925
    50  H    0.999777
    51  H    0.985469
    52  H    1.001587
    53  H    1.005242
    54  H    0.992613
    55  H    1.006905
    56  H    1.002294
    57  H    0.981678
    58  H    0.982770
    59  H    0.984850
    60  H    0.986382
    61  H    0.994331
    62  H    0.994514
    63  H    1.001546
    64  H    1.001162
    65  H    0.987883
    66  H    0.994417
    67  H    1.007392
    68  H    0.995349
    69  H    1.015126
    70  H    1.007167
    71  H    1.004556
    72  H    0.999439
    73  H    1.021992
    74  H    1.017602
    75  H    1.015825
    76  H    1.007686
    77  H    1.005004
    78  H    1.004974
    79  H    1.000220
    80  Mg  11.999933
    81  C    6.000455
    82  C    5.999819
    83  C    5.999445
    84  C    5.999989
    85  N    7.000159
    86  C    5.999260
    87  C    6.000291
    88  C    5.999608
    89  C    6.000873
    90  C    5.999880
    91  C    6.000149
    92  C    5.999940
    93  H    1.000084
    94  N    6.999909
    95  C    6.001041
    96  C    6.000538
    97  C    6.000482
    98  C    6.000937
    99  C    5.999882
   100  C    6.000359
   101  O    8.000893
   102  C    5.999804
   103  N    6.999637
   104  C    6.000978
   105  C    5.999672
   106  C    6.000301
   107  C    5.999402
   108  C    6.000018
   109  C    6.000086
   110  C    6.000151
   111  N    7.000051
   112  C    5.999209
   113  C    5.999196
   114  C    5.999896
   115  C    5.999285
   116  C    6.000027
   117  C    5.999435
   118  O    7.998891
   119  C    5.999851
   120  C    5.999933
   121  O    8.000003
   122  O    7.999856
   123  C    6.000002
   124  H    1.000456
   125  H    1.000125
   126  H    0.999483
   127  H    1.000111
   128  H    1.000096
   129  H    1.000187
   130  H    1.000425
   131  H    1.000055
   132  H    0.999729
   133  H    0.999919
   134  H    0.999824
   135  H    1.000074
   136  H    1.000479
   137  H    1.000404
   138  H    1.000706
   139  H    1.000176
   140  H    1.000388
   141  H    1.000458
   142  H    0.999939
   143  H    0.999976
   144  H    1.000299
   145  H    1.000102
   146  H    0.999968
   147  H    0.999786
   148  H    0.999926
   149  H    0.999727
   150  H    0.999805
   151  H    1.000013
   152  H    0.999536
   153  H    0.999621
   154  H    0.999114
   155  H    0.999602
   156  H    0.999827
   157  H    1.000083
   158  H    0.999972
 Sum of Mulliken charges = 624.00000

 Dipole moment (field-independent basis, Debye):
    X=              7.0185    Y=              0.8073    Z=             -8.0011  Tot=             10.6738
 Quadrupole moment (field-independent basis, Debye-Ang):
   XX=           -170.0552   YY=              3.7851   ZZ=             -1.5305
   XY=             -7.0917   XZ=            106.5665   YZ=             -3.6032

 Normal termination of Gaussian 16 at Fri Oct 15 06:35:13 2021.
