 Gaussian 16, Revision A.03,
 Gaussian 16:  ES64L-G16RevA.03 25-Dec-2016

 --------------------------------------------------------
 #p PBE1PBE/Def2SVP td=(nstates=5) density=(transition=1)
 --------------------------------------------------------

 --------------------------------
 TDDFT excited states in gaussian
 --------------------------------
 Symbolic Z-matrix:
 Charge =  0 Multiplicity = 1

                         Standard orientation:
 ---------------------------------------------------------------------
 Center     Atomic      Atomic             Coordinates (Angstroms)
 Number     Number       Type             X           Y           Z
 ---------------------------------------------------------------------
      1         12           0      -11.282705   -0.427895    0.234966
      2          6           0       -8.387854    1.381878    0.573107
      3          6           0      -11.455340    0.579232   -3.038155
      4          6           0      -14.269631   -2.159226   -0.095055
      5          6           0      -11.296618   -1.048998    3.645890
      6          7           0      -10.079901    0.899495   -1.116427
      7          6           0       -8.886461    1.439334   -0.729516
      8          6           0       -8.256917    2.152957   -1.825960
      9          6           0       -9.268080    2.126547   -2.961245
     10          6           0      -10.387060    1.166693   -2.362639
     11          6           0       -9.858358    3.484095   -3.477554
     12          6           0       -6.868110    1.531985   -2.200315
     13          6           0       -5.763949    2.516394   -2.719678
     14          1           0       -6.240620    3.789380   -3.446264
     15          7           0      -12.597035   -0.822212   -1.406990
     16          6           0      -12.456525   -0.308490   -2.684787
     17          6           0      -13.574835   -0.792535   -3.519391
     18          6           0      -14.421099   -1.616541   -2.658782
     19          6           0      -13.774504   -1.586111   -1.335335
     20          6           0      -13.781355   -0.432776   -4.981663
     21          6           0      -15.622039   -2.439478   -3.062919
     22          8           0      -16.181205   -3.150678   -2.209707
     23          6           0      -16.226450   -2.444572   -4.417068
     24          7           0      -12.649613   -1.397446    1.586279
     25          6           0      -13.739687   -2.057807    1.185261
     26          6           0      -14.370944   -2.829931    2.355757
     27          6           0      -13.285080   -2.704561    3.558217
     28          6           0      -12.297651   -1.708734    2.853888
     29          6           0      -15.791354   -2.283261    2.697163
     30          6           0      -12.557757   -4.022188    3.942498
     31          6           0      -12.896167   -4.589469    5.329242
     32          7           0      -10.139828    0.103139    1.852405
     33          6           0      -10.265022   -0.208863    3.208138
     34          6           0       -9.152957    0.395535    3.974790
     35          6           0       -8.426414    1.034583    2.942523
     36          6           0       -9.065592    0.836652    1.689401
     37          6           0       -8.869024    0.286610    5.391485
     38          6           0       -7.172119    1.764603    2.665102
     39          8           0       -6.257857    2.082166    3.378558
     40          6           0       -7.132762    2.048845    1.121296
     41          6           0       -6.938875    3.493636    0.919410
     42          8           0       -7.859246    4.289748    1.165686
     43          8           0       -5.761254    3.837264    0.329245
     44          6           0       -5.566982    5.220133   -0.095120
     45          1           0      -11.480190    0.916936   -4.076330
     46          1           0      -15.229249   -2.667890   -0.210541
     47          1           0      -11.274022   -1.376932    4.687140
     48          1           0       -8.103499    3.184781   -1.508013
     49          1           0       -8.905875    1.533088   -3.801525
     50          1           0       -9.542194    4.443146   -3.065950
     51          1           0      -10.942025    3.437602   -3.372649
     52          1           0       -9.766480    3.615263   -4.556009
     53          1           0       -7.013406    0.701209   -2.890928
     54          1           0       -6.512098    0.938032   -1.358755
     55          1           0       -5.079750    1.990843   -3.386436
     56          1           0       -5.188361    2.971434   -1.914158
     57          1           0      -12.948163    0.121848   -5.411892
     58          1           0      -14.650403    0.213566   -5.107722
     59          1           0      -13.757973   -1.333592   -5.594661
     60          1           0      -17.010028   -3.201458   -4.399170
     61          1           0      -15.512198   -2.661063   -5.212547
     62          1           0      -16.573652   -1.440847   -4.662791
     63          1           0      -14.359782   -3.884264    2.079121
     64          1           0      -13.696434   -2.219712    4.443478
     65          1           0      -16.548790   -3.062874    2.779450
     66          1           0      -16.136729   -1.593130    1.926916
     67          1           0      -15.640916   -1.721021    3.619074
     68          1           0      -11.471958   -3.937965    3.916996
     69          1           0      -12.760930   -4.821027    3.228945
     70          1           0      -13.905020   -4.285645    5.608775
     71          1           0      -12.197995   -4.159238    6.046575
     72          1           0      -12.704286   -5.660589    5.281388
     73          1           0       -7.834444    0.527650    5.634705
     74          1           0       -9.085779   -0.700188    5.800096
     75          1           0       -9.386158    1.104149    5.893994
     76          1           0       -6.271668    1.448837    0.825052
     77          1           0       -5.520467    5.938353    0.723930
     78          1           0       -6.297737    5.502473   -0.852940
     79          1           0       -4.593368    5.318213   -0.575031
     80         12           0       11.357568   -0.647314   -0.455330
     81          6           0        9.476382    2.318170   -0.209391
     82          6           0       12.299249   -0.099457    2.847229
     83          6           0       12.809249   -3.644344   -0.410651
     84          6           0        9.569368   -1.411741   -3.329593
     85          7           0       10.758598    0.890214    1.156064
     86          6           0       10.085702    2.089965    1.030769
     87          6           0       10.304877    3.078287    2.156921
     88          6           0       11.231797    2.308735    3.127922
     89          6           0       11.453163    0.951243    2.383649
     90          6           0       12.588051    3.052379    3.462773
     91          6           0        9.000611    3.600311    2.909597
     92          6           0        7.800911    2.645208    3.019620
     93          1           0        7.529273    1.954892    4.389019
     94          7           0       12.391831   -1.690215    0.983542
     95          6           0       12.725052   -1.281335    2.243507
     96          6           0       13.596427   -2.279166    2.879918
     97          6           0       13.763104   -3.334689    1.931867
     98          6           0       12.945652   -2.903400    0.756570
     99          6           0       14.181532   -2.119836    4.278144
    100          6           0       14.571641   -4.619304    2.349186
    101          8           0       15.000428   -4.679567    3.493110
    102          6           0       14.733685   -5.827119    1.333327
    103          7           0       11.108613   -2.301751   -1.609125
    104          6           0       11.952174   -3.405125   -1.502295
    105          6           0       11.702452   -4.442154   -2.737058
    106          6           0       10.513756   -3.671229   -3.530090
    107          6           0       10.406384   -2.386940   -2.772721
    108          6           0       12.983622   -4.680216   -3.589399
    109          6           0        9.123521   -4.438578   -3.581706
    110          6           0        8.434059   -4.639220   -4.940157
    111          7           0        9.902750    0.296444   -1.660291
    112          6           0        9.242758   -0.108879   -2.792004
    113          6           0        8.278199    0.943676   -3.175026
    114          6           0        8.450519    1.974308   -2.212463
    115          6           0        9.422174    1.481892   -1.297010
    116          6           0        7.305390    0.926950   -4.321408
    117          6           0        7.906762    3.281799   -1.799385
    118          8           0        7.113272    4.070783   -2.332995
    119          6           0        8.727738    3.627144   -0.565879
    120          6           0        9.551436    4.774105   -0.750824
    121          8           0       10.643920    4.717558   -1.372586
    122          8           0        8.999906    5.912076   -0.129385
    123          6           0        9.799705    7.132023   -0.086693
    124          1           0       12.764804    0.102204    3.813871
    125          1           0       13.397013   -4.560170   -0.496732
    126          1           0        9.094669   -1.700478   -4.269197
    127          1           0       10.797995    3.906684    1.649714
    128          1           0       10.605954    2.046038    3.980040
    129          1           0       12.576477    3.375955    4.503537
    130          1           0       12.635858    3.905302    2.785236
    131          1           0       13.447088    2.394393    3.327441
    132          1           0        8.701641    4.424765    2.261058
    133          1           0        9.287221    4.000016    3.882591
    134          1           0        7.869396    1.855212    2.271006
    135          1           0        6.906565    3.191980    2.723742
    136          1           0       13.689471   -2.712143    5.049634
    137          1           0       14.339177   -1.068613    4.519672
    138          1           0       15.225587   -2.431900    4.297097
    139          1           0       15.044356   -5.397084    0.380840
    140          1           0       13.764120   -6.318443    1.256266
    141          1           0       15.326365   -6.655831    1.720711
    142          1           0       11.494271   -5.407226   -2.276069
    143          1           0       10.893479   -3.446753   -4.527102
    144          1           0       12.947157   -3.989335   -4.431431
    145          1           0       13.111044   -5.723056   -3.880058
    146          1           0       13.915424   -4.514491   -3.048927
    147          1           0        8.462156   -3.928097   -2.880895
    148          1           0        9.407383   -5.418207   -3.197212
    149          1           0        7.369559   -4.849145   -4.832324
    150          1           0        8.966510   -5.500677   -5.342628
    151          1           0        8.610235   -3.701606   -5.467778
    152          1           0        7.124144   -0.133114   -4.496870
    153          1           0        7.909635    1.314799   -5.141486
    154          1           0        6.429019    1.564057   -4.198786
    155          1           0        7.942826    3.810526    0.167536
    156          1           0       10.029889    7.614352   -1.036716
    157          1           0       10.744177    6.939607    0.423122
    158          1           0        9.311560    7.792476    0.630165
 ---------------------------------------------------------------------

 SCF Done:  E(RPBE1PBE) =  -4067.40680825     A.U. after   16 cycles

 Excitation energies and oscillator strengths:

 Excited State   1:      Singlet-A      1.8695 eV  663.18 nm  f=0.3819  <S**2>=0.000
     309 -> 315       -0.17508
     311 -> 313        0.69191
     311 <- 313       -0.10388
 This state for optimization and/or second-order correction.
 Total Energy, E(TD-HF/TD-DFT) =  -4067.33810361
 Copying the excited state density for this state as the 1-particle RhoCI density.

 Excited State   2:      Singlet-A      1.8897 eV  656.11 nm  f=0.3567  <S**2>=0.000
     310 -> 316       -0.17991
     312 -> 314        0.68939
     312 <- 314       -0.10434

 Excited State   3:      Singlet-A      1.9302 eV  642.33 nm  f=0.0000  <S**2>=0.000
     312 -> 313        0.70709

 Excited State   4:      Singlet-A      1.9537 eV  634.60 nm  f=0.0000  <S**2>=0.000
     311 -> 314        0.70709

 Excited State   5:      Singlet-A      2.2564 eV  549.47 nm  f=0.0900  <S**2>=0.000
     310 -> 314        0.64125
     312 -> 316        0.28247

 The electronic state is 1-A.
 Alpha  occ. eigenvalues --  -46.92354 -46.92219 -19.26468 -19.26413 -19.20435
 Alpha  occ. eigenvalues --  -19.19796 -19.19477 -19.19430 -19.19186 -19.18514
 Alpha  occ. eigenvalues --  -14.42059 -14.41728 -14.41258 -14.41157 -14.39531
 Alpha  occ. eigenvalues --  -14.39125 -14.39022 -14.38835 -10.36975 -10.36456
 Alpha  occ. eigenvalues --  -10.33644 -10.32544 -10.32002 -10.31947 -10.29564
 Alpha  occ. eigenvalues --  -10.29400 -10.29312 -10.29079 -10.28685 -10.28465
 Alpha  occ. eigenvalues --  -10.28443 -10.28437 -10.28268 -10.28259 -10.28054
 Alpha  occ. eigenvalues --  -10.27972 -10.27770 -10.27646 -10.27613 -10.27449
 Alpha  occ. eigenvalues --  -10.27163 -10.26759 -10.26686 -10.26453 -10.26311
 Alpha  occ. eigenvalues --  -10.26233 -10.26228 -10.26106 -10.26101 -10.26016
 Alpha  occ. eigenvalues --  -10.25988 -10.25935 -10.25914 -10.25752 -10.25559
 Alpha  occ. eigenvalues --  -10.25536 -10.25481 -10.25376 -10.25200 -10.25176
 Alpha  occ. eigenvalues --  -10.25165 -10.24993 -10.24988 -10.24909 -10.24723
 Alpha  occ. eigenvalues --  -10.24657 -10.24566 -10.24488 -10.24433 -10.24418
 Alpha  occ. eigenvalues --  -10.24283 -10.24247 -10.24075 -10.24056 -10.23639
 Alpha  occ. eigenvalues --  -10.23624 -10.23561 -10.23459 -10.23439 -10.23417
 Alpha  occ. eigenvalues --  -10.23296 -10.23032 -10.22969 -10.22953 -10.22838
 Alpha  occ. eigenvalues --  -10.22761  -3.14555  -3.14226  -1.87352  -1.87088
 Alpha  occ. eigenvalues --   -1.86946  -1.86782  -1.86583  -1.86455  -1.11082
 Alpha  occ. eigenvalues --   -1.09680  -1.05634  -1.05115  -1.03827  -1.03549
 Alpha  occ. eigenvalues --   -1.01806  -1.01778  -0.99674  -0.98864  -0.98658
 Alpha  occ. eigenvalues --   -0.98184  -0.97999  -0.97226  -0.96490  -0.95539
 Alpha  occ. eigenvalues --   -0.87527  -0.86765  -0.83496  -0.83340  -0.83080
 Alpha  occ. eigenvalues --   -0.82525  -0.82347  -0.81962  -0.81452  -0.81135
 Alpha  occ. eigenvalues --   -0.81013  -0.80461  -0.80405  -0.79814  -0.78827
 Alpha  occ. eigenvalues --   -0.78183  -0.78174  -0.77774  -0.77058  -0.76506
 Alpha  occ. eigenvalues --   -0.75942  -0.75861  -0.75438  -0.75239  -0.74834
 Alpha  occ. eigenvalues --   -0.74425  -0.72698  -0.72532  -0.71774  -0.71548
 Alpha  occ. eigenvalues --   -0.71507  -0.71002  -0.70846  -0.70475  -0.69278
 Alpha  occ. eigenvalues --   -0.69185  -0.67003  -0.66819  -0.66193  -0.65917
 Alpha  occ. eigenvalues --   -0.63644  -0.63464  -0.63339  -0.62847  -0.62695
 Alpha  occ. eigenvalues --   -0.62393  -0.61301  -0.61236  -0.60213  -0.60184
 Alpha  occ. eigenvalues --   -0.59801  -0.59683  -0.59535  -0.59111  -0.58817
 Alpha  occ. eigenvalues --   -0.58739  -0.57228  -0.57039  -0.54792  -0.54328
 Alpha  occ. eigenvalues --   -0.54144  -0.54054  -0.53710  -0.53622  -0.53230
 Alpha  occ. eigenvalues --   -0.53139  -0.52842  -0.52347  -0.51807  -0.51778
 Alpha  occ. eigenvalues --   -0.50668  -0.50627  -0.50223  -0.50076  -0.49859
 Alpha  occ. eigenvalues --   -0.49497  -0.49172  -0.48987  -0.48804  -0.48443
 Alpha  occ. eigenvalues --   -0.48398  -0.47997  -0.47619  -0.47557  -0.47291
 Alpha  occ. eigenvalues --   -0.47196  -0.46956  -0.46870  -0.46680  -0.46553
 Alpha  occ. eigenvalues --   -0.46201  -0.46156  -0.46058  -0.45809  -0.45752
 Alpha  occ. eigenvalues --   -0.45647  -0.45490  -0.45182  -0.44953  -0.44815
 Alpha  occ. eigenvalues --   -0.44562  -0.44456  -0.44358  -0.43950  -0.43932
 Alpha  occ. eigenvalues --   -0.43851  -0.43840  -0.43549  -0.43484  -0.43233
 Alpha  occ. eigenvalues --   -0.43081  -0.42973  -0.42924  -0.42849  -0.42683
 Alpha  occ. eigenvalues --   -0.42538  -0.42113  -0.42058  -0.41795  -0.41793
 Alpha  occ. eigenvalues --   -0.41700  -0.41362  -0.41289  -0.41144  -0.40994
 Alpha  occ. eigenvalues --   -0.40946  -0.40904  -0.40591  -0.40563  -0.40387
 Alpha  occ. eigenvalues --   -0.40201  -0.40081  -0.39841  -0.39764  -0.39672
 Alpha  occ. eigenvalues --   -0.39532  -0.39447  -0.39305  -0.39254  -0.39072
 Alpha  occ. eigenvalues --   -0.38933  -0.38706  -0.38536  -0.38365  -0.38261
 Alpha  occ. eigenvalues --   -0.38033  -0.37920  -0.37821  -0.37772  -0.37762
 Alpha  occ. eigenvalues --   -0.37459  -0.37445  -0.37263  -0.37074  -0.36908
 Alpha  occ. eigenvalues --   -0.36893  -0.36514  -0.36499  -0.36294  -0.35974
 Alpha  occ. eigenvalues --   -0.35911  -0.35694  -0.35538  -0.35471  -0.35248
 Alpha  occ. eigenvalues --   -0.35215  -0.34811  -0.34793  -0.34664  -0.34466
 Alpha  occ. eigenvalues --   -0.33837  -0.33106  -0.32602  -0.32519  -0.32412
 Alpha  occ. eigenvalues --   -0.32098  -0.32091  -0.32053  -0.31650  -0.31601
 Alpha  occ. eigenvalues --   -0.31563  -0.31010  -0.29993  -0.29200  -0.29077
 Alpha  occ. eigenvalues --   -0.28866  -0.28847  -0.28409  -0.26904  -0.26628
 Alpha  occ. eigenvalues --   -0.26211  -0.25992  -0.25732  -0.25622  -0.25622
 Alpha  occ. eigenvalues --   -0.25475  -0.25337  -0.25066  -0.21045  -0.20750
 Alpha  occ. eigenvalues --   -0.18492  -0.18437
 Alpha virt. eigenvalues --   -0.10751  -0.10721  -0.05283  -0.05152  -0.03984
 Alpha virt. eigenvalues --   -0.03583  -0.02399  -0.01758  -0.01177  -0.01037
 Alpha virt. eigenvalues --   -0.00141   0.00413   0.00813   0.01144   0.01431

 Mulliken charges:
               1
     1  Mg  12.000111
     2  C    6.000400
     3  C    5.999707
     4  C    5.999699
     5  C    6.000321
     6  N    7.000099
     7  C    5.999014
     8  C    6.000463
     9  C    5.999744
    10  C    6.000786
    11  C    5.999973
    12  C    6.000247
    13  C    6.000141
    14  H    0.999789
    15  N    6.999813
    16  C    6.000890
    17  C    6.000566
    18  C    6.000420
    19  C    6.000897
    20  C    5.999935
    21  C    6.000388
    22  O    8.000898
    23  C    5.999866
    24  N    6.999798
    25  C    6.000904
    26  C    5.999698
    27  C    6.000309
    28  C    5.999220
    29  C    5.999873
    30  C    5.999990
    31  C    5.999991
    32  N    7.000118
    33  C    5.999172
    34  C    5.999496
    35  C    5.999920
    36  C    5.999285
    37  C    6.000083
    38  C    5.999545
    39  O    7.998970
    40  C    5.999707
    41  C    5.999915
    42  O    8.000236
    43  O    7.999632
    44  C    6.000356
    45  H    1.000114
    46  H    1.000362
    47  H    1.000049
    48  H    0.999797
    49  H    0.999737
    50  H    1.000131
    51  H    1.000175
    52  H    0.999893
    53  H    0.999713
    54  H    1.000082
    55  H    0.999078
    56  H    0.999628
    57  H    1.000298
    58  H    1.000603
    59  H    1.000485
    60  H    1.000571
    61  H    1.000155
    62  H    1.000243
    63  H    1.000145
    64  H    1.000168
    65  H    1.000288
    66  H    0.999857
    67  H    1.000397
    68  H    1.000070
    69  H    0.999818
    70  H    1.000004
    71  H    1.000178
    72  H    1.000107
    73  H    0.999660
    74  H    0.999856
    75  H    0.999704
    76  H    0.999321
    77  H    1.000055
    78  H    1.000006
    79  H    0.998866
    80  Mg  12.002876
    81  C    5.984846
    82  C    6.010334
    83  C    6.021512
    84  C    5.985730
    85  N    6.995908
    86  C    6.031350
    87  C    5.989100
    88  C    6.010937
    89  C    5.964284
    90  C    6.003497
    91  C    5.999106
    92  C    5.997391
    93  H    1.014165
    94  N    7.005998
    95  C    5.959870
    96  C    5.980725
    97  C    5.987771
    98  C    5.961534
    99  C    6.004151
   100  C    5.989659
   101  O    7.983157
   102  C    5.999942
   103  N    7.001291
   104  C    5.965487
   105  C    6.007444
   106  C    5.987643
   107  C    6.033172
   108  C    6.003655
   109  C    5.995494
   110  C    5.999615
   111  N    6.998934
   112  C    6.038587
   113  C    6.026525
   114  C    6.004854
   115  C    6.027841
   116  C    6.000873
   117  C    6.019348
   118  O    8.028174
   119  C    6.000155
   120  C    6.003319
   121  O    8.006619
   122  O    8.001794
   123  C    5.996287
   124  H    0.989366
   125  H    0.992545
   126  H    1.007308
   127  H    0.999931
   128  H    0.995973
   129  H    0.994795
   130  H    0.987750
   131  H    1.005991
   132  H    0.994672
   133  H    1.008101
   134  H    0.995225
   135  H    0.997629
   136  H    0.981123
   137  H    0.984321
   138  H    0.985311
   139  H    0.992842
   140  H    0.990542
   141  H    0.988245
   142  H    1.001125
   143  H    1.001255
   144  H    0.989746
   145  H    0.995562
   146  H    1.004851
   147  H    0.998254
   148  H    1.012056
   149  H    1.001221
   150  H    1.005769
   151  H    0.995857
   152  H    1.015571
   153  H    1.017892
   154  H    1.014271
   155  H    1.009766
   156  H    1.002521
   157  H    1.006761
   158  H    1.004898
 Sum of Mulliken charges = 624.00000

 Dipole moment (field-independent basis, Debye):
    X=             -6.7079    Y=              5.0487    Z=             -6.1041  Tot=             10.3801
 Quadrupole moment (field-independent basis, Debye-Ang):
   XX=           -135.3490   YY=             -3.3846   ZZ=              1.3841
   XY=             62.4605   XZ=            -63.1187   YZ=              3.5539

 Normal termination of Gaussian 16 at Fri Oct 15 02:39:29 2021.
