 Gaussian 16, Revision A.03,
 Gaussian 16:  ES64L-G16RevA.03 25-Dec-2016

 --------------------------------------------------------
 #p PBE1PBE/Def2SVP td=(nstates=5) density=(transition=1)
 --------------------------------------------------------

 --------------------------------
 TDDFT excited states in gaussian
 --------------------------------
 Symbolic Z-matrix:
 Charge =  0 Multiplicity = 1

                         Standard orientation:
 ---------------------------------------------------------------------
 Center     Atomic      Atomic             Coordinates (Angstroms)
 Number     Number       Type             X           Y           Z
 ---------------------------------------------------------------------
      1         12           0       11.576571    0.026155    0.626147
      2          6           0        8.355678   -1.095769   -0.419235
      3          6           0       12.806614   -2.469813   -1.181927
      4          6           0       14.595433    1.543759    0.695788
      5          6           0        9.929915    3.035087    1.593124
      6          7           0       10.711010   -1.603703   -0.507878
      7          6           0        9.363564   -1.948534   -0.749737
      8          6           0        9.206068   -3.240812   -1.611460
      9          6           0       10.690195   -3.672637   -1.781451
     10          6           0       11.471737   -2.568758   -1.038077
     11          6           0       10.818826   -5.105306   -1.237731
     12          6           0        8.454352   -3.110497   -3.006014
     13          6           0        7.123796   -3.842276   -3.138839
     14          1           0        6.979762   -4.849126   -4.298312
     15          7           0       13.433204   -0.411437   -0.027782
     16          6           0       13.738801   -1.536463   -0.793413
     17          6           0       15.129149   -1.642853   -0.981195
     18          6           0       15.731841   -0.582721   -0.329516
     19          6           0       14.639487    0.247639    0.135924
     20          6           0       15.939300   -2.757824   -1.741049
     21          6           0       17.230629   -0.415569   -0.240138
     22          8           0       18.021310   -1.229860   -0.614184
     23          6           0       17.733782    0.897730    0.538173
     24          7           0       12.189445    2.024881    1.007722
     25          6           0       13.512700    2.372815    1.007798
     26          6           0       13.577882    3.937838    1.239657
     27          6           0       12.168886    4.401833    1.644947
     28          6           0       11.350242    3.079536    1.388140
     29          6           0       14.702698    4.400570    2.121504
     30          6           0       11.693951    5.483509    0.682729
     31          6           0       10.621059    6.420069    1.171337
     32          7           0        9.527766    0.747352    0.837021
     33          6           0        9.040469    1.959946    1.262898
     34          6           0        7.622811    1.943257    1.271581
     35          6           0        7.229491    0.719847    0.679312
     36          6           0        8.460987    0.096665    0.330828
     37          6           0        6.712108    3.041261    1.650738
     38          6           0        6.152094   -0.163676    0.213466
     39          8           0        4.928257   -0.019300    0.335528
     40          6           0        6.820084   -1.400396   -0.501351
     41          6           0        6.603716   -2.578874    0.294916
     42          8           0        7.248021   -2.773607    1.352708
     43          8           0        5.619829   -3.286243   -0.294518
     44          6           0        5.324122   -4.654286    0.212469
     45          1           0       13.246023   -3.302125   -1.736297
     46          1           0       15.596094    1.975780    0.764498
     47          1           0        9.367645    3.882681    1.989656
     48          1           0        8.675979   -4.001680   -1.038669
     49          1           0       11.033711   -3.652800   -2.815270
     50          1           0       11.883461   -5.335489   -1.208856
     51          1           0       10.322277   -5.882114   -1.819048
     52          1           0       10.422774   -5.202595   -0.226276
     53          1           0        9.103423   -3.643797   -3.700597
     54          1           0        8.368254   -2.061137   -3.288233
     55          1           0        6.344326   -3.083463   -3.215682
     56          1           0        6.948539   -4.430996   -2.237707
     57          1           0       16.564111   -2.226716   -2.459418
     58          1           0       15.284074   -3.447815   -2.272512
     59          1           0       16.504536   -3.446627   -1.113280
     60          1           0       18.816437    0.797981    0.609702
     61          1           0       17.203807    0.834372    1.488846
     62          1           0       17.377002    1.694284   -0.114681
     63          1           0       13.806107    4.324301    0.245723
     64          1           0       12.047181    4.776748    2.661132
     65          1           0       14.387076    5.312797    2.627055
     66          1           0       15.549019    4.575033    1.456823
     67          1           0       15.075482    3.644386    2.811401
     68          1           0       11.355287    5.086170   -0.274543
     69          1           0       12.513428    6.111691    0.333580
     70          1           0       10.440032    6.336436    2.242787
     71          1           0        9.700796    6.175839    0.640316
     72          1           0       10.813590    7.437853    0.832140
     73          1           0        7.162951    3.700989    2.392766
     74          1           0        5.826554    2.555262    2.060969
     75          1           0        6.544514    3.606548    0.733683
     76          1           0        6.552511   -1.520722   -1.551137
     77          1           0        4.247309   -4.690003    0.040927
     78          1           0        5.615993   -4.816144    1.249700
     79          1           0        5.681983   -5.421308   -0.475172
     80         12           0      -10.661566    0.811951    0.097972
     81          6           0      -11.512235   -2.593040    0.422758
     82          6           0       -7.501196   -0.181656   -0.421116
     83          6           0      -10.094937    3.934924   -0.680866
     84          6           0      -14.176193    1.446977   -0.022873
     85          7           0       -9.655822   -1.180938   -0.029022
     86          6           0      -10.136481   -2.425164    0.204668
     87          6           0       -9.077885   -3.507664    0.144965
     88          6           0       -7.772086   -2.615577    0.144117
     89          6           0       -8.291894   -1.219949   -0.132017
     90          6           0       -6.922320   -2.674893    1.480051
     91          6           0       -9.053204   -4.593850   -1.017136
     92          6           0       -9.874312   -4.406639   -2.320534
     93          1           0       -9.273098   -4.976641   -3.659343
     94          7           0       -8.931832    1.746051   -0.350259
     95          6           0       -7.764371    1.180580   -0.626471
     96          6           0       -6.818432    2.230634   -1.093110
     97          6           0       -7.578835    3.509207   -1.002602
     98          6           0       -8.938905    3.079094   -0.676809
     99          6           0       -5.357333    1.989867   -1.361652
    100          6           0       -7.041827    4.878055   -1.329588
    101          8           0       -5.855237    4.989782   -1.627634
    102          6           0       -7.890502    6.201498   -1.387739
    103          7           0      -11.998477    2.510766   -0.423381
    104          6           0      -11.414735    3.654838   -0.520675
    105          6           0      -12.554174    4.766251   -0.595342
    106          6           0      -13.806892    3.888327   -0.628815
    107          6           0      -13.306408    2.483373   -0.353957
    108          6           0      -12.599259    5.866290    0.478273
    109          6           0      -14.506084    3.811757   -2.083455
    110          6           0      -15.900551    4.452326   -2.209101
    111          7           0      -12.489089   -0.271685    0.111340
    112          6           0      -13.803755    0.106858    0.181227
    113          6           0      -14.661255   -1.045812    0.560833
    114          6           0      -13.814866   -2.190427    0.547289
    115          6           0      -12.488439   -1.601066    0.373583
    116          6           0      -16.199489   -1.057039    0.705153
    117          6           0      -13.703812   -3.605134    0.675728
    118          8           0      -14.522954   -4.537829    0.739009
    119          6           0      -12.188521   -3.930885    0.677839
    120          6           0      -11.887109   -4.626216    2.008621
    121          8           0      -11.650479   -5.769320    2.296624
    122          8           0      -11.706025   -3.631042    2.975241
    123          6           0      -11.283907   -4.062160    4.344110
    124          1           0       -6.482288   -0.534512   -0.594764
    125          1           0       -9.848229    4.975109   -0.907040
    126          1           0      -15.215060    1.700809    0.196346
    127          1           0       -9.136955   -4.000852    1.115042
    128          1           0       -7.104129   -2.958409   -0.646207
    129          1           0       -7.415127   -3.295456    2.227727
    130          1           0       -7.030748   -1.655431    1.848619
    131          1           0       -5.902018   -2.984114    1.252441
    132          1           0       -9.342332   -5.542052   -0.563719
    133          1           0       -8.019027   -4.757742   -1.321876
    134          1           0      -10.000207   -3.329865   -2.433938
    135          1           0      -10.809259   -4.965914   -2.336046
    136          1           0       -4.775115    2.908576   -1.429888
    137          1           0       -5.311296    1.326212   -2.225914
    138          1           0       -5.047858    1.349387   -0.535094
    139          1           0       -8.522094    6.503205   -0.551326
    140          1           0       -8.612318    6.101386   -2.198339
    141          1           0       -7.268495    7.079423   -1.559866
    142          1           0      -12.464505    5.367584   -1.499400
    143          1           0      -14.639123    4.132531    0.032298
    144          1           0      -11.784180    5.767285    1.195351
    145          1           0      -13.565972    5.898887    0.981888
    146          1           0      -12.455178    6.869835    0.077964
    147          1           0      -14.649882    2.782084   -2.407992
    148          1           0      -13.806340    4.293851   -2.766472
    149          1           0      -16.578078    3.968791   -2.913279
    150          1           0      -15.718853    5.451668   -2.604481
    151          1           0      -16.291274    4.398568   -1.192885
    152          1           0      -16.707225   -0.180088    0.304914
    153          1           0      -16.361140   -1.095682    1.782128
    154          1           0      -16.570946   -1.997413    0.298697
    155          1           0      -11.964207   -4.607446   -0.146150
    156          1           0      -11.600743   -5.041064    4.703253
    157          1           0      -11.784397   -3.344026    4.993372
    158          1           0      -10.231203   -3.977812    4.614692
 ---------------------------------------------------------------------

 SCF Done:  E(RPBE1PBE) =  -4067.35995043     A.U. after   16 cycles

 Excitation energies and oscillator strengths:

 Excited State   1:      Singlet-A      1.8680 eV  663.74 nm  f=0.4400  <S**2>=0.000
     310 -> 316       -0.16533
     312 -> 314        0.68867
     312 <- 314       -0.10856
 This state for optimization and/or second-order correction.
 Total Energy, E(TD-HF/TD-DFT) =  -4067.29130436
 Copying the excited state density for this state as the 1-particle RhoCI density.

 Excited State   2:      Singlet-A      1.8871 eV  657.00 nm  f=0.0000  <S**2>=0.000
     312 -> 313        0.70708

 Excited State   3:      Singlet-A      1.9117 eV  648.55 nm  f=0.3470  <S**2>=0.000
     309 -> 315        0.17586
     311 -> 313        0.68558
     311 <- 313       -0.10501

 Excited State   4:      Singlet-A      1.9677 eV  630.10 nm  f=0.0000  <S**2>=0.000
     311 -> 314        0.70707

 Excited State   5:      Singlet-A      2.2687 eV  546.51 nm  f=0.1191  <S**2>=0.000
     309 -> 313        0.60971
     310 -> 314       -0.22965
     311 -> 315       -0.24221

 The electronic state is 1-A.
 Alpha  occ. eigenvalues --  -46.93352 -46.91937 -19.27186 -19.25125 -19.20493
 Alpha  occ. eigenvalues --  -19.19952 -19.19724 -19.19429 -19.19142 -19.18839
 Alpha  occ. eigenvalues --  -14.41965 -14.41770 -14.41722 -14.41201 -14.39909
 Alpha  occ. eigenvalues --  -14.39771 -14.39091 -14.38241 -10.36769 -10.36528
 Alpha  occ. eigenvalues --  -10.32790 -10.32702 -10.32571 -10.32504 -10.30108
 Alpha  occ. eigenvalues --  -10.29475 -10.29241 -10.29001 -10.28979 -10.28626
 Alpha  occ. eigenvalues --  -10.28570 -10.28499 -10.28445 -10.28439 -10.28406
 Alpha  occ. eigenvalues --  -10.27970 -10.27830 -10.27686 -10.27528 -10.27524
 Alpha  occ. eigenvalues --  -10.27033 -10.26779 -10.26677 -10.26622 -10.26527
 Alpha  occ. eigenvalues --  -10.26491 -10.26393 -10.26177 -10.25927 -10.25865
 Alpha  occ. eigenvalues --  -10.25777 -10.25663 -10.25657 -10.25649 -10.25623
 Alpha  occ. eigenvalues --  -10.25486 -10.25387 -10.25380 -10.25103 -10.25066
 Alpha  occ. eigenvalues --  -10.25055 -10.25033 -10.25029 -10.24839 -10.24729
 Alpha  occ. eigenvalues --  -10.24673 -10.24540 -10.24373 -10.24343 -10.24281
 Alpha  occ. eigenvalues --  -10.24012 -10.23953 -10.23918 -10.23882 -10.23847
 Alpha  occ. eigenvalues --  -10.23591 -10.23586 -10.23552 -10.23438 -10.23423
 Alpha  occ. eigenvalues --  -10.23261 -10.23141 -10.23015 -10.22835 -10.22828
 Alpha  occ. eigenvalues --  -10.22632  -3.15412  -3.14109  -1.88240  -1.87784
 Alpha  occ. eigenvalues --   -1.87638  -1.86925  -1.86463  -1.86358  -1.11446
 Alpha  occ. eigenvalues --   -1.10669  -1.06602  -1.04321  -1.03795  -1.03548
 Alpha  occ. eigenvalues --   -1.02218  -1.01977  -1.01300  -0.99322  -0.98676
 Alpha  occ. eigenvalues --   -0.98597  -0.97922  -0.97867  -0.97479  -0.96374
 Alpha  occ. eigenvalues --   -0.87748  -0.86631  -0.84071  -0.83962  -0.83568
 Alpha  occ. eigenvalues --   -0.83080  -0.82971  -0.82769  -0.82531  -0.81640
 Alpha  occ. eigenvalues --   -0.81016  -0.81006  -0.80827  -0.79759  -0.79089
 Alpha  occ. eigenvalues --   -0.79052  -0.78577  -0.78105  -0.77532  -0.77074
 Alpha  occ. eigenvalues --   -0.76162  -0.75922  -0.75498  -0.75017  -0.74675
 Alpha  occ. eigenvalues --   -0.74512  -0.72733  -0.72088  -0.71888  -0.71651
 Alpha  occ. eigenvalues --   -0.71221  -0.70908  -0.70852  -0.70573  -0.69672
 Alpha  occ. eigenvalues --   -0.69436  -0.67635  -0.67257  -0.66781  -0.66169
 Alpha  occ. eigenvalues --   -0.63908  -0.63545  -0.63485  -0.63020  -0.62981
 Alpha  occ. eigenvalues --   -0.62222  -0.61958  -0.61621  -0.61215  -0.60073
 Alpha  occ. eigenvalues --   -0.60058  -0.59995  -0.59900  -0.59515  -0.59314
 Alpha  occ. eigenvalues --   -0.59159  -0.57571  -0.56859  -0.55028  -0.54781
 Alpha  occ. eigenvalues --   -0.54644  -0.54225  -0.53945  -0.53907  -0.53077
 Alpha  occ. eigenvalues --   -0.53032  -0.52826  -0.52629  -0.51822  -0.51577
 Alpha  occ. eigenvalues --   -0.50938  -0.50905  -0.50569  -0.50307  -0.50045
 Alpha  occ. eigenvalues --   -0.49575  -0.49505  -0.49301  -0.48969  -0.48892
 Alpha  occ. eigenvalues --   -0.48435  -0.48421  -0.48180  -0.47757  -0.47446
 Alpha  occ. eigenvalues --   -0.47443  -0.47277  -0.46934  -0.46741  -0.46510
 Alpha  occ. eigenvalues --   -0.46248  -0.46202  -0.46108  -0.46000  -0.45839
 Alpha  occ. eigenvalues --   -0.45651  -0.45515  -0.45171  -0.45117  -0.45039
 Alpha  occ. eigenvalues --   -0.44816  -0.44549  -0.44497  -0.44351  -0.44303
 Alpha  occ. eigenvalues --   -0.43970  -0.43756  -0.43603  -0.43572  -0.43377
 Alpha  occ. eigenvalues --   -0.43126  -0.43059  -0.43032  -0.42941  -0.42810
 Alpha  occ. eigenvalues --   -0.42695  -0.42500  -0.42213  -0.42200  -0.42051
 Alpha  occ. eigenvalues --   -0.41998  -0.41788  -0.41658  -0.41589  -0.41249
 Alpha  occ. eigenvalues --   -0.41118  -0.41000  -0.40960  -0.40777  -0.40676
 Alpha  occ. eigenvalues --   -0.40484  -0.40311  -0.40138  -0.40040  -0.40021
 Alpha  occ. eigenvalues --   -0.39912  -0.39567  -0.39563  -0.39496  -0.39104
 Alpha  occ. eigenvalues --   -0.38917  -0.38878  -0.38702  -0.38389  -0.38317
 Alpha  occ. eigenvalues --   -0.38291  -0.38120  -0.38039  -0.37895  -0.37815
 Alpha  occ. eigenvalues --   -0.37659  -0.37568  -0.37373  -0.37158  -0.36947
 Alpha  occ. eigenvalues --   -0.36845  -0.36808  -0.36754  -0.36589  -0.36522
 Alpha  occ. eigenvalues --   -0.36206  -0.36054  -0.35713  -0.35530  -0.35499
 Alpha  occ. eigenvalues --   -0.35183  -0.35086  -0.34809  -0.34076  -0.34020
 Alpha  occ. eigenvalues --   -0.33725  -0.33385  -0.33161  -0.33157  -0.32614
 Alpha  occ. eigenvalues --   -0.32598  -0.32216  -0.31873  -0.31772  -0.31452
 Alpha  occ. eigenvalues --   -0.31228  -0.31064  -0.29960  -0.29412  -0.29319
 Alpha  occ. eigenvalues --   -0.29121  -0.28994  -0.28581  -0.27385  -0.27334
 Alpha  occ. eigenvalues --   -0.26484  -0.26146  -0.26059  -0.25774  -0.25766
 Alpha  occ. eigenvalues --   -0.25512  -0.24942  -0.24743  -0.21313  -0.21165
 Alpha  occ. eigenvalues --   -0.19077  -0.18868
 Alpha virt. eigenvalues --   -0.11322  -0.11229  -0.05426  -0.05243  -0.04674
 Alpha virt. eigenvalues --   -0.03712  -0.02541  -0.01676  -0.01344  -0.00518
 Alpha virt. eigenvalues --   -0.00005   0.00259   0.00561   0.00603   0.01359

 Mulliken charges:
               1
     1  Mg  11.999965
     2  C    6.019841
     3  C    5.998160
     4  C    5.981269
     5  C    6.005912
     6  N    7.015599
     7  C    5.972201
     8  C    6.011698
     9  C    5.986210
    10  C    6.029679
    11  C    5.997456
    12  C    6.002241
    13  C    6.002211
    14  H    0.993636
    15  N    6.997312
    16  C    6.032291
    17  C    6.022796
    18  C    6.009673
    19  C    6.032549
    20  C    5.998167
    21  C    6.007901
    22  O    8.016720
    23  C    6.003742
    24  N    6.995604
    25  C    6.026596
    26  C    5.997181
    27  C    6.006324
    28  C    5.969030
    29  C    5.999582
    30  C    6.007377
    31  C    6.000494
    32  N    6.998055
    33  C    5.968682
    34  C    5.971576
    35  C    5.995986
    36  C    5.971153
    37  C    6.001176
    38  C    5.982249
    39  O    7.970822
    40  C    5.997993
    41  C    5.997805
    42  O    7.994537
    43  O    7.998796
    44  C    6.001554
    45  H    1.013340
    46  H    1.005813
    47  H    0.990933
    48  H    0.999045
    49  H    1.002442
    50  H    0.994695
    51  H    1.011107
    52  H    1.009691
    53  H    0.991657
    54  H    1.001932
    55  H    1.004661
    56  H    1.001039
    57  H    1.014530
    58  H    1.016279
    59  H    1.017609
    60  H    1.011153
    61  H    1.006915
    62  H    1.007723
    63  H    0.999572
    64  H    0.996907
    65  H    1.007890
    66  H    0.995614
    67  H    0.997720
    68  H    0.997741
    69  H    0.987954
    70  H    1.000012
    71  H    1.005054
    72  H    0.994510
    73  H    0.983256
    74  H    0.985948
    75  H    0.979477
    76  H    0.989510
    77  H    0.998061
    78  H    0.997131
    79  H    0.993281
    80  Mg  12.000379
    81  C    6.001379
    82  C    5.998225
    83  C    5.997698
    84  C    6.001535
    85  N    7.000047
    86  C    5.996530
    87  C    6.001471
    88  C    5.998754
    89  C    6.003157
    90  C    5.999827
    91  C    5.999849
    92  C    6.001143
    93  H    0.998475
    94  N    6.999086
    95  C    6.005210
    96  C    6.003928
    97  C    6.000788
    98  C    6.004839
    99  C    6.000048
   100  C    6.001260
   101  O    8.002973
   102  C    5.999757
   103  N    7.000255
   104  C    6.003221
   105  C    5.999145
   106  C    6.000524
   107  C    5.996297
   108  C    5.999966
   109  C    6.000907
   110  C    6.000011
   111  N    6.999837
   112  C    5.995927
   113  C    5.995778
   114  C    5.999195
   115  C    5.997396
   116  C    5.999903
   117  C    5.997546
   118  O    7.995294
   119  C    6.000162
   120  C    5.999730
   121  O    7.998779
   122  O    8.000343
   123  C    6.000398
   124  H    1.001912
   125  H    1.000919
   126  H    0.998739
   127  H    0.999832
   128  H    1.000441
   129  H    1.001421
   130  H    0.999709
   131  H    1.000950
   132  H    1.000016
   133  H    0.999127
   134  H    0.999647
   135  H    1.000294
   136  H    1.002753
   137  H    1.002748
   138  H    1.003491
   139  H    1.001195
   140  H    1.000806
   141  H    1.001607
   142  H    0.999833
   143  H    0.999897
   144  H    0.999811
   145  H    1.000866
   146  H    0.999873
   147  H    1.000381
   148  H    0.998349
   149  H    0.999712
   150  H    0.999117
   151  H    1.000051
   152  H    0.997468
   153  H    0.997554
   154  H    0.997982
   155  H    0.998520
   156  H    0.999330
   157  H    0.999593
   158  H    0.999083
 Sum of Mulliken charges = 624.00000

 Dipole moment (field-independent basis, Debye):
    X=             10.5390    Y=             -2.8377    Z=             -2.2599  Tot=             11.1458
 Quadrupole moment (field-independent basis, Debye-Ang):
   XX=            183.6977   YY=             -2.4554   ZZ=             -0.9645
   XY=            -48.7822   XZ=            -19.7088   YZ=             -0.7937

 Normal termination of Gaussian 16 at Thu Oct 14 20:19:11 2021.
