 Gaussian 16, Revision A.03,
 Gaussian 16:  ES64L-G16RevA.03 25-Dec-2016

 --------------------------------------------------------
 #p PBE1PBE/Def2SVP td=(nstates=5) density=(transition=1)
 --------------------------------------------------------

 --------------------------------
 TDDFT excited states in gaussian
 --------------------------------
 Symbolic Z-matrix:
 Charge =  0 Multiplicity = 1

                         Standard orientation:
 ---------------------------------------------------------------------
 Center     Atomic      Atomic             Coordinates (Angstroms)
 Number     Number       Type             X           Y           Z
 ---------------------------------------------------------------------
      1         12           0      -28.290959    0.351680   -0.664848
      2          6           0      -27.849878   -2.312104    1.558967
      3          6           0      -27.596357    2.491880    1.724047
      4          6           0      -29.464021    2.892579   -2.657725
      5          6           0      -29.528169   -1.913785   -3.073684
      6          7           0      -27.696222    0.064925    1.336499
      7          6           0      -27.500917   -1.081851    2.074389
      8          6           0      -26.859371   -0.783823    3.423392
      9          6           0      -27.014527    0.768631    3.506730
     10          6           0      -27.348928    1.142359    2.104632
     11          6           0      -27.909696    1.376343    4.564972
     12          6           0      -25.409223   -1.337675    3.598208
     13          6           0      -24.766955   -1.065728    4.962872
     14          1           0      -24.187076   -2.275612    5.680798
     15          7           0      -28.567001    2.507824   -0.449756
     16          6           0      -28.064086    3.201485    0.592659
     17          6           0      -28.203568    4.608074    0.335729
     18          6           0      -28.852773    4.737205   -0.904183
     19          6           0      -28.997575    3.335525   -1.382917
     20          6           0      -27.771869    5.689555    1.303512
     21          6           0      -29.223885    5.967271   -1.665874
     22          8           0      -29.932534    6.013356   -2.706811
     23          6           0      -28.697844    7.327678   -1.224798
     24          7           0      -29.350909    0.459289   -2.540876
     25          6           0      -29.770684    1.617793   -3.100609
     26          6           0      -30.319414    1.328954   -4.600207
     27          6           0      -29.871555   -0.157385   -4.828689
     28          6           0      -29.492466   -0.580696   -3.445841
     29          6           0      -31.878397    1.575425   -4.634178
     30          6           0      -28.562575   -0.219503   -5.697727
     31          6           0      -27.357961    0.614850   -5.290888
     32          7           0      -28.592772   -1.765510   -0.809622
     33          6           0      -29.094895   -2.485746   -1.858529
     34          6           0      -29.085491   -3.821056   -1.476251
     35          6           0      -28.632510   -3.885592   -0.127119
     36          6           0      -28.343329   -2.597291    0.238760
     37          6           0      -29.565239   -5.013333   -2.226350
     38          6           0      -28.348527   -4.731503    1.054309
     39          8           0      -28.484525   -5.926770    1.289240
     40          6           0      -27.725452   -3.727555    2.171622
     41          6           0      -28.345307   -3.976248    3.500422
     42          8           0      -29.556114   -4.300104    3.684821
     43          8           0      -27.364082   -3.962306    4.392497
     44          6           0      -27.688768   -4.628528    5.639252
     45          1           0      -27.265566    3.243862    2.443628
     46          1           0      -29.809049    3.690927   -3.319075
     47          1           0      -29.793170   -2.593102   -3.885367
     48          1           0      -27.450883   -1.366352    4.129958
     49          1           0      -26.068549    1.281269    3.684518
     50          1           0      -28.152570    0.749895    5.423248
     51          1           0      -28.826823    1.731251    4.094080
     52          1           0      -27.486770    2.349398    4.815554
     53          1           0      -24.772013   -0.952752    2.801617
     54          1           0      -25.420932   -2.415680    3.440718
     55          1           0      -25.522478   -0.900718    5.730819
     56          1           0      -24.058069   -0.238907    4.909789
     57          1           0      -27.453680    5.328857    2.281579
     58          1           0      -28.559031    6.359730    1.648108
     59          1           0      -26.966815    6.317975    0.921379
     60          1           0      -29.183068    7.582963   -0.283142
     61          1           0      -29.092935    8.136562   -1.838961
     62          1           0      -27.609005    7.389638   -1.226026
     63          1           0      -29.873246    2.040322   -5.295201
     64          1           0      -30.768744   -0.668710   -5.177483
     65          1           0      -32.253572    2.110164   -3.761419
     66          1           0      -32.473623    0.662957   -4.672590
     67          1           0      -32.201184    2.210968   -5.457544
     68          1           0      -28.977187    0.115212   -6.648657
     69          1           0      -28.166077   -1.222470   -5.852769
     70          1           0      -27.642299    1.334359   -4.522760
     71          1           0      -26.798117    1.084978   -6.098647
     72          1           0      -26.662062   -0.143832   -4.932716
     73          1           0      -29.125140   -5.127762   -3.217283
     74          1           0      -30.632025   -4.843626   -2.369293
     75          1           0      -29.443937   -5.938607   -1.664032
     76          1           0      -26.678989   -4.026259    2.227544
     77          1           0      -26.848316   -5.243351    5.963750
     78          1           0      -28.536789   -5.312493    5.615093
     79          1           0      -27.852065   -3.833427    6.367479
     80         12           0       28.954024   -0.425772   -0.009637
     81          6           0       26.244035    1.549037    1.076265
     82          6           0       26.734578   -2.859828   -0.637390
     83          6           0       31.453285   -1.959522   -1.452523
     84          6           0       30.893690    2.573493    0.102505
     85          7           0       26.730939   -0.589961    0.164115
     86          6           0       25.824170    0.267185    0.690242
     87          6           0       24.416729   -0.291807    0.741585
     88          6           0       24.713593   -1.813369    0.429092
     89          6           0       26.144670   -1.804571   -0.067062
     90          6           0       24.520840   -2.796768    1.656331
     91          6           0       23.251258    0.284130   -0.175400
     92          6           0       23.553621    1.188709   -1.399502
     93          1           0       22.604544    1.078013   -2.650808
     94          7           0       29.057209   -2.273712   -0.809576
     95          6           0       28.044846   -3.085406   -1.083967
     96          6           0       28.558540   -4.256501   -1.845426
     97          6           0       30.031355   -4.047464   -1.936393
     98          6           0       30.222677   -2.701882   -1.394421
     99          6           0       27.726756   -5.457359   -2.207321
    100          6           0       31.015525   -4.986005   -2.584152
    101          8           0       30.607324   -6.060626   -3.017593
    102          6           0       32.542065   -4.687366   -2.819998
    103          7           0       30.945598    0.260227   -0.722484
    104          6           0       31.740840   -0.677618   -1.106097
    105          6           0       33.186684   -0.032387   -1.285952
    106          6           0       32.876819    1.441321   -1.015137
    107          6           0       31.444680    1.453834   -0.516391
    108          6           0       34.359837   -0.579634   -0.455891
    109          6           0       32.869718    2.357410   -2.346092
    110          6           0       33.980808    3.417700   -2.455255
    111          7           0       28.690031    1.640969    0.406510
    112          6           0       29.560395    2.691285    0.532316
    113          6           0       28.906087    3.834198    1.220565
    114          6           0       27.532351    3.484114    1.350916
    115          6           0       27.521027    2.084664    0.928614
    116          6           0       29.521250    5.219532    1.519803
    117          6           0       26.222980    3.881192    1.748534
    118          8           0       25.707172    4.962226    2.080538
    119          6           0       25.332238    2.615768    1.661898
    120          6           0       24.776685    2.368455    3.067428
    121          8           0       23.687866    2.523523    3.553282
    122          8           0       25.750163    1.671389    3.791277
    123          6           0       25.392641    1.210020    5.168654
    124          1           0       25.988584   -3.631530   -0.839388
    125          1           0       32.267801   -2.529053   -1.906620
    126          1           0       31.564265    3.392077    0.370799
    127          1           0       24.133695   -0.222318    1.791745
    128          1           0       24.024588   -2.162495   -0.340126
    129          1           0       24.260099   -2.245938    2.559424
    130          1           0       25.542839   -3.135845    1.822001
    131          1           0       23.806044   -3.576567    1.392859
    132          1           0       22.570082    0.819707    0.485983
    133          1           0       22.651707   -0.548630   -0.544587
    134          1           0       24.564190    0.926968   -1.713180
    135          1           0       23.410858    2.251663   -1.207401
    136          1           0       28.322217   -6.315859   -2.517264
    137          1           0       26.979992   -5.107371   -2.921015
    138          1           0       27.144263   -5.645956   -1.304923
    139          1           0       33.186169   -4.364230   -2.001318
    140          1           0       32.616454   -3.852128   -3.516385
    141          1           0       33.069705   -5.549450   -3.227035
    142          1           0       33.565521   -0.180930   -2.296585
    143          1           0       33.521955    1.998986   -0.335340
    144          1           0       34.054375   -1.410845    0.179827
    145          1           0       34.842694    0.205752    0.126555
    146          1           0       35.155993   -1.012092   -1.061883
    147          1           0       31.943960    2.923237   -2.441172
    148          1           0       32.932877    1.657335   -3.179444
    149          1           0       33.705197    4.335336   -2.975543
    150          1           0       34.759089    2.951565   -3.059424
    151          1           0       34.233778    3.620724   -1.414565
    152          1           0       30.458542    5.429382    1.005529
    153          1           0       29.706818    5.197235    2.593379
    154          1           0       28.754054    5.974590    1.350132
    155          1           0       24.509597    2.800675    0.971912
    156          1           0       24.680718    1.798347    5.747151
    157          1           0       26.336028    1.292126    5.708122
    158          1           0       25.095152    0.170553    5.308379
 ---------------------------------------------------------------------

 SCF Done:  E(RPBE1PBE) =  -4067.37120059     A.U. after   17 cycles

 Excitation energies and oscillator strengths:

 Excited State   1:      Singlet-A      1.8527 eV  669.22 nm  f=0.3738  <S**2>=0.000
     310 -> 316        0.15637
     311 -> 313        0.69627
     311 <- 313       -0.11164
 This state for optimization and/or second-order correction.
 Total Energy, E(TD-HF/TD-DFT) =  -4067.30311680
 Copying the excited state density for this state as the 1-particle RhoCI density.

 Excited State   2:      Singlet-A      1.9112 eV  648.74 nm  f=0.3987  <S**2>=0.000
     309 -> 315       -0.17696
     312 -> 314        0.69115
     312 <- 314       -0.10569

 Excited State   3:      Singlet-A      1.9626 eV  631.74 nm  f=0.0000  <S**2>=0.000
     312 -> 313        0.70711

 Excited State   4:      Singlet-A      2.0802 eV  596.01 nm  f=0.0000  <S**2>=0.000
     311 -> 314        0.70711

 Excited State   5:      Singlet-A      2.2680 eV  546.66 nm  f=0.0973  <S**2>=0.000
     309 -> 314        0.65265
     312 -> 315        0.25854

 The electronic state is 1-A.
 Alpha  occ. eigenvalues --  -46.93476 -46.92772 -19.27349 -19.25231 -19.20597
 Alpha  occ. eigenvalues --  -19.19542 -19.19422 -19.19112 -19.18986 -19.18920
 Alpha  occ. eigenvalues --  -14.42349 -14.41847 -14.41388 -14.41321 -14.40029
 Alpha  occ. eigenvalues --  -14.39900 -14.39248 -14.37881 -10.36874 -10.36328
 Alpha  occ. eigenvalues --  -10.32934 -10.32683 -10.32669 -10.32216 -10.29608
 Alpha  occ. eigenvalues --  -10.29283 -10.29128 -10.29082 -10.28876 -10.28747
 Alpha  occ. eigenvalues --  -10.28705 -10.28695 -10.28568 -10.28522 -10.28183
 Alpha  occ. eigenvalues --  -10.28039 -10.27986 -10.27958 -10.27817 -10.27650
 Alpha  occ. eigenvalues --  -10.27646 -10.27069 -10.26878 -10.26775 -10.26759
 Alpha  occ. eigenvalues --  -10.26614 -10.26504 -10.26359 -10.26233 -10.26154
 Alpha  occ. eigenvalues --  -10.26100 -10.26000 -10.25911 -10.25833 -10.25769
 Alpha  occ. eigenvalues --  -10.25679 -10.25623 -10.25607 -10.25567 -10.25486
 Alpha  occ. eigenvalues --  -10.25241 -10.25228 -10.25163 -10.24994 -10.24958
 Alpha  occ. eigenvalues --  -10.24795 -10.24695 -10.24528 -10.24476 -10.24401
 Alpha  occ. eigenvalues --  -10.24227 -10.24220 -10.24161 -10.24054 -10.24051
 Alpha  occ. eigenvalues --  -10.24011 -10.23888 -10.23748 -10.23692 -10.23228
 Alpha  occ. eigenvalues --  -10.23215 -10.23147 -10.23031 -10.22870 -10.22541
 Alpha  occ. eigenvalues --  -10.22298  -3.15536  -3.14745  -1.88364  -1.87908
 Alpha  occ. eigenvalues --   -1.87762  -1.87594  -1.87088  -1.86981  -1.12972
 Alpha  occ. eigenvalues --   -1.10774  -1.04469  -1.03905  -1.03751  -1.02849
 Alpha  occ. eigenvalues --   -1.02082  -1.01418  -1.00796  -0.99904  -0.99447
 Alpha  occ. eigenvalues --   -0.98946  -0.98722  -0.98107  -0.98048  -0.97224
 Alpha  occ. eigenvalues --   -0.87866  -0.86303  -0.84190  -0.83840  -0.83569
 Alpha  occ. eigenvalues --   -0.83199  -0.82893  -0.82646  -0.82604  -0.82152
 Alpha  occ. eigenvalues --   -0.81452  -0.81125  -0.80229  -0.79911  -0.79210
 Alpha  occ. eigenvalues --   -0.79112  -0.78210  -0.78093  -0.77191  -0.77176
 Alpha  occ. eigenvalues --   -0.76058  -0.76044  -0.75650  -0.75134  -0.74859
 Alpha  occ. eigenvalues --   -0.74802  -0.72942  -0.72854  -0.72003  -0.71956
 Alpha  occ. eigenvalues --   -0.71681  -0.71353  -0.70962  -0.70519  -0.69807
 Alpha  occ. eigenvalues --   -0.69587  -0.67759  -0.67281  -0.66905  -0.66155
 Alpha  occ. eigenvalues --   -0.64185  -0.64030  -0.63603  -0.63583  -0.63082
 Alpha  occ. eigenvalues --   -0.62645  -0.62259  -0.62088  -0.61330  -0.60185
 Alpha  occ. eigenvalues --   -0.60016  -0.59882  -0.59807  -0.59432  -0.59292
 Alpha  occ. eigenvalues --   -0.59071  -0.57681  -0.57367  -0.55414  -0.55148
 Alpha  occ. eigenvalues --   -0.54910  -0.54286  -0.54064  -0.53881  -0.53200
 Alpha  occ. eigenvalues --   -0.53166  -0.52759  -0.52152  -0.51888  -0.51689
 Alpha  occ. eigenvalues --   -0.51040  -0.50795  -0.50553  -0.50431  -0.50333
 Alpha  occ. eigenvalues --   -0.50161  -0.50023  -0.49941  -0.49626  -0.49080
 Alpha  occ. eigenvalues --   -0.48938  -0.48529  -0.48293  -0.48039  -0.47550
 Alpha  occ. eigenvalues --   -0.47518  -0.47389  -0.47303  -0.47073  -0.46635
 Alpha  occ. eigenvalues --   -0.46321  -0.46316  -0.46160  -0.46115  -0.45767
 Alpha  occ. eigenvalues --   -0.45653  -0.45615  -0.45234  -0.45227  -0.44862
 Alpha  occ. eigenvalues --   -0.44697  -0.44677  -0.44437  -0.44113  -0.44093
 Alpha  occ. eigenvalues --   -0.43729  -0.43701  -0.43524  -0.43501  -0.43262
 Alpha  occ. eigenvalues --   -0.43239  -0.43162  -0.43058  -0.42926  -0.42923
 Alpha  occ. eigenvalues --   -0.42722  -0.42623  -0.42340  -0.42194  -0.42013
 Alpha  occ. eigenvalues --   -0.41907  -0.41710  -0.41658  -0.41516  -0.41368
 Alpha  occ. eigenvalues --   -0.41188  -0.41112  -0.41028  -0.40793  -0.40747
 Alpha  occ. eigenvalues --   -0.40662  -0.40605  -0.40250  -0.40208  -0.40140
 Alpha  occ. eigenvalues --   -0.40009  -0.39681  -0.39591  -0.39211  -0.39055
 Alpha  occ. eigenvalues --   -0.39037  -0.38826  -0.38652  -0.38539  -0.38415
 Alpha  occ. eigenvalues --   -0.38180  -0.38159  -0.38042  -0.37935  -0.37708
 Alpha  occ. eigenvalues --   -0.37575  -0.37480  -0.37292  -0.37067  -0.37040
 Alpha  occ. eigenvalues --   -0.36984  -0.36869  -0.36473  -0.36325  -0.36258
 Alpha  occ. eigenvalues --   -0.36161  -0.36160  -0.35830  -0.35694  -0.35614
 Alpha  occ. eigenvalues --   -0.35337  -0.34917  -0.34536  -0.34200  -0.34128
 Alpha  occ. eigenvalues --   -0.33839  -0.33639  -0.33284  -0.32844  -0.32715
 Alpha  occ. eigenvalues --   -0.32342  -0.31994  -0.31991  -0.31637  -0.31558
 Alpha  occ. eigenvalues --   -0.31356  -0.31335  -0.30076  -0.29435  -0.29293
 Alpha  occ. eigenvalues --   -0.29213  -0.29111  -0.28253  -0.27454  -0.27378
 Alpha  occ. eigenvalues --   -0.26601  -0.26362  -0.26170  -0.25913  -0.25613
 Alpha  occ. eigenvalues --   -0.25256  -0.25085  -0.24420  -0.21435  -0.20999
 Alpha  occ. eigenvalues --   -0.19323  -0.19204
 Alpha virt. eigenvalues --   -0.11761  -0.11448  -0.05549  -0.04912  -0.04798
 Alpha virt. eigenvalues --   -0.04117  -0.02673  -0.02059  -0.01471  -0.01039
 Alpha virt. eigenvalues --   -0.00265   0.00155   0.00500   0.00529   0.01235

 Mulliken charges:
               1
     1  Mg  12.005696
     2  C    5.977469
     3  C    6.001352
     4  C    6.022026
     5  C    6.000732
     6  N    6.981703
     7  C    6.035165
     8  C    5.991367
     9  C    6.008301
    10  C    5.967474
    11  C    6.001444
    12  C    5.997361
    13  C    6.002951
    14  H    0.997273
    15  N    7.005587
    16  C    5.966071
    17  C    5.981679
    18  C    5.981678
    19  C    5.971961
    20  C    6.004881
    21  C    5.989061
    22  O    7.966118
    23  C    6.005960
    24  N    7.007536
    25  C    5.972062
    26  C    6.004362
    27  C    5.988251
    28  C    6.028934
    29  C    6.001465
    30  C    5.990578
    31  C    5.997972
    32  N    6.997510
    33  C    6.029376
    34  C    6.031242
    35  C    5.998104
    36  C    6.034169
    37  C    5.999229
    38  C    6.013589
    39  O    8.024472
    40  C    6.005001
    41  C    6.005732
    42  O    8.001357
    43  O    8.002059
    44  C    5.998493
    45  H    0.989405
    46  H    0.997694
    47  H    1.013731
    48  H    0.997972
    49  H    0.997571
    50  H    0.985927
    51  H    1.000525
    52  H    1.001096
    53  H    1.005508
    54  H    0.993134
    55  H    1.002669
    56  H    1.005068
    57  H    0.984099
    58  H    0.982232
    59  H    0.982354
    60  H    0.992762
    61  H    0.985890
    62  H    0.991451
    63  H    1.002780
    64  H    1.002808
    65  H    1.006570
    66  H    0.990526
    67  H    1.000607
    68  H    1.011274
    69  H    0.998077
    70  H    1.014653
    71  H    1.005670
    72  H    0.995625
    73  H    1.019467
    74  H    1.019693
    75  H    1.014495
    76  H    1.004229
    77  H    1.002965
    78  H    1.000596
    79  H    1.006072
    80  Mg  12.000044
    81  C    6.000048
    82  C    5.999975
    83  C    6.000062
    84  C    6.000182
    85  N    6.999883
    86  C    6.000117
    87  C    5.999991
    88  C    6.000040
    89  C    5.999945
    90  C    6.000080
    91  C    6.000030
    92  C    5.999986
    93  H    1.000035
    94  N    6.999994
    95  C    5.999894
    96  C    5.999963
    97  C    5.999845
    98  C    5.999976
    99  C    6.000025
   100  C    6.000063
   101  O    7.999879
   102  C    6.000023
   103  N    6.999947
   104  C    5.999997
   105  C    6.000009
   106  C    6.000004
   107  C    6.000154
   108  C    6.000001
   109  C    5.999977
   110  C    5.999988
   111  N    6.999883
   112  C    6.000007
   113  C    6.000135
   114  C    5.999976
   115  C    5.999957
   116  C    6.000014
   117  C    6.000092
   118  O    8.000049
   119  C    6.000053
   120  C    5.999932
   121  O    8.000059
   122  O    7.999950
   123  C    5.999930
   124  H    0.999998
   125  H    0.999889
   126  H    0.999976
   127  H    0.999987
   128  H    0.999986
   129  H    0.999934
   130  H    0.999982
   131  H    0.999957
   132  H    0.999977
   133  H    1.000018
   134  H    0.999985
   135  H    0.999986
   136  H    0.999900
   137  H    0.999939
   138  H    0.999950
   139  H    0.999972
   140  H    0.999978
   141  H    0.999948
   142  H    0.999999
   143  H    0.999996
   144  H    1.000014
   145  H    0.999980
   146  H    0.999992
   147  H    1.000009
   148  H    1.000038
   149  H    1.000031
   150  H    1.000012
   151  H    0.999990
   152  H    1.000070
   153  H    1.000077
   154  H    1.000076
   155  H    1.000052
   156  H    1.000041
   157  H    1.000026
   158  H    1.000039
 Sum of Mulliken charges = 624.00000

 Dipole moment (field-independent basis, Debye):
    X=             -0.5510    Y=            -10.1567    Z=             -1.7210  Tot=             10.3162
 Quadrupole moment (field-independent basis, Debye-Ang):
   XX=             30.7990   YY=            -11.0337   ZZ=              5.1765
   XY=            293.8685   XZ=             49.8169   YZ=              4.5949

 Normal termination of Gaussian 16 at Thu Oct 14 09:37:31 2021.
