 Gaussian 16, Revision A.03,
 Gaussian 16:  ES64L-G16RevA.03 25-Dec-2016

 --------------------------------------------------------
 #p PBE1PBE/Def2SVP td=(nstates=5) density=(transition=1)
 --------------------------------------------------------

 --------------------------------
 TDDFT excited states in gaussian
 --------------------------------
 Symbolic Z-matrix:
 Charge =  0 Multiplicity = 1

                         Standard orientation:
 ---------------------------------------------------------------------
 Center     Atomic      Atomic             Coordinates (Angstroms)
 Number     Number       Type             X           Y           Z
 ---------------------------------------------------------------------
      1         12           0      -27.224288    0.758182    0.370781
      2          6           0      -28.012096   -1.941380   -1.782294
      3          6           0      -24.922949   -1.413149    1.856634
      4          6           0      -26.291491    3.184348    2.376558
      5          6           0      -30.084870    2.416522   -0.704815
      6          7           0      -26.560078   -1.399113    0.015920
      7          6           0      -26.904167   -2.246436   -0.993426
      8          6           0      -26.217846   -3.623100   -0.980812
      9          6           0      -25.305907   -3.401967    0.330004
     10          6           0      -25.645756   -2.000058    0.741517
     11          6           0      -25.618121   -4.398251    1.515797
     12          6           0      -25.375966   -3.898865   -2.269150
     13          6           0      -25.719405   -4.950024   -3.317435
     14          1           0      -24.629760   -5.727022   -4.044377
     15          7           0      -25.750941    0.925652    1.867527
     16          6           0      -24.948880   -0.099626    2.389132
     17          6           0      -24.221525    0.450401    3.511180
     18          6           0      -24.474991    1.817869    3.584742
     19          6           0      -25.500580    2.042551    2.547425
     20          6           0      -23.214519   -0.409848    4.195194
     21          6           0      -23.972924    2.889983    4.551275
     22          8           0      -24.311424    4.077060    4.520731
     23          6           0      -22.903675    2.496881    5.492891
     24          7           0      -28.099183    2.516886    0.880514
     25          6           0      -27.433907    3.484794    1.580738
     26          6           0      -28.096832    4.888373    1.371202
     27          6           0      -29.305221    4.569083    0.500623
     28          6           0      -29.215826    3.038043    0.249919
     29          6           0      -28.395269    5.644863    2.706810
     30          6           0      -29.251051    5.407288   -0.785697
     31          6           0      -30.500083    6.057682   -1.258489
     32          7           0      -28.820871    0.336386   -0.883206
     33          6           0      -29.895001    1.106084   -1.252144
     34          6           0      -30.711779    0.434732   -2.218503
     35          6           0      -29.975142   -0.794897   -2.588677
     36          6           0      -28.813691   -0.772979   -1.720155
     37          6           0      -32.046558    0.950191   -2.783311
     38          6           0      -29.930906   -2.017160   -3.430306
     39          8           0      -30.646196   -2.358129   -4.387628
     40          6           0      -28.643033   -2.789109   -2.925318
     41          6           0      -29.267910   -4.079534   -2.495557
     42          8           0      -29.768550   -4.361616   -1.413632
     43          8           0      -29.115826   -4.995891   -3.412085
     44          6           0      -29.799779   -6.303697   -3.265623
     45          1           0      -24.149510   -2.138501    2.116357
     46          1           0      -26.115112    4.055418    3.010538
     47          1           0      -30.938415    2.983191   -1.081738
     48          1           0      -26.986105   -4.372629   -0.786761
     49          1           0      -24.221947   -3.402045    0.211302
     50          1           0      -26.556622   -4.949807    1.467276
     51          1           0      -25.650394   -3.852366    2.458051
     52          1           0      -24.806404   -5.123500    1.575488
     53          1           0      -24.377955   -4.174022   -1.927642
     54          1           0      -25.301534   -2.994055   -2.871032
     55          1           0      -26.140050   -4.315495   -4.097656
     56          1           0      -26.421078   -5.581172   -2.771990
     57          1           0      -22.207329   -0.004527    4.108677
     58          1           0      -23.203048   -1.414286    3.771269
     59          1           0      -23.395537   -0.518359    5.264137
     60          1           0      -22.105213    1.994613    4.946587
     61          1           0      -23.218630    1.706997    6.174941
     62          1           0      -22.431326    3.330550    6.011510
     63          1           0      -27.309590    5.421738    0.838657
     64          1           0      -30.231973    4.873898    0.986466
     65          1           0      -27.962227    5.179006    3.591874
     66          1           0      -29.457297    5.745541    2.927471
     67          1           0      -28.116364    6.693563    2.605192
     68          1           0      -28.919882    4.678155   -1.524052
     69          1           0      -28.558514    6.247995   -0.752595
     70          1           0      -30.621315    5.702886   -2.281706
     71          1           0      -30.436890    7.137601   -1.125125
     72          1           0      -31.411089    5.714602   -0.767641
     73          1           0      -32.860522    0.580329   -2.160890
     74          1           0      -32.133205    0.610692   -3.815349
     75          1           0      -32.116012    2.037643   -2.748629
     76          1           0      -28.006352   -2.936231   -3.797535
     77          1           0      -29.504338   -6.861794   -2.377848
     78          1           0      -29.693292   -6.961595   -4.127914
     79          1           0      -30.887480   -6.285248   -3.204554
     80         12           0       28.180702   -0.256650   -0.499882
     81          6           0       25.018440   -0.657990    1.147308
     82          6           0       26.593093    2.393582   -2.293103
     83          6           0       31.154860    1.003943   -1.424086
     84          6           0       29.583298   -2.311049    1.847133
     85          7           0       26.084724    0.725866   -0.503400
     86          6           0       24.976040    0.385042    0.215029
     87          6           0       23.746884    1.291808   -0.142020
     88          6           0       24.241001    1.946411   -1.519749
     89          6           0       25.741684    1.740582   -1.388645
     90          6           0       23.720674    1.266607   -2.765456
     91          6           0       23.324919    2.212420    0.991138
     92          6           0       21.807391    2.337105    1.285390
     93          1           0       20.969333    3.594471    0.761416
     94          7           0       28.828528    1.448720   -1.810602
     95          6           0       27.981300    2.336045   -2.506594
     96          6           0       28.807738    3.224775   -3.332588
     97          6           0       30.169978    2.779214   -3.110029
     98          6           0       30.117898    1.794025   -2.051343
     99          6           0       28.343536    4.356298   -4.170200
    100          6           0       31.377149    3.272552   -3.867543
    101          8           0       31.195330    3.980048   -4.832748
    102          6           0       32.806211    2.932999   -3.511821
    103          7           0       30.007465   -0.544340    0.222939
    104          6           0       31.098175   -0.010821   -0.457867
    105          6           0       32.363532   -0.534476    0.225471
    106          6           0       31.853313   -1.734487    1.104442
    107          6           0       30.376088   -1.547247    1.019471
    108          6           0       33.614694   -0.856619   -0.671531
    109          6           0       32.409669   -1.871443    2.554951
    110          6           0       33.042421   -3.167906    2.943253
    111          7           0       27.498365   -1.377870    1.074262
    112          6           0       28.172148   -2.245221    1.916351
    113          6           0       27.221790   -3.040157    2.717944
    114          6           0       25.965432   -2.365550    2.461788
    115          6           0       26.221854   -1.391663    1.491816
    116          6           0       27.465205   -4.194378    3.654252
    117          6           0       24.514944   -2.391169    2.813125
    118          8           0       23.921836   -3.038544    3.628221
    119          6           0       23.914947   -1.213202    2.052349
    120          6           0       22.768595   -1.731725    1.236422
    121          8           0       22.998049   -2.502674    0.329435
    122          8           0       21.485536   -1.185664    1.540755
    123          6           0       20.373300   -1.534465    0.605579
    124          1           0       26.132946    3.176788   -2.899425
    125          1           0       32.190487    1.278207   -1.631802
    126          1           0       30.050148   -3.098556    2.441898
    127          1           0       22.887901    0.702246   -0.461149
    128          1           0       24.073756    3.023376   -1.531391
    129          1           0       24.329667    0.382699   -2.953615
    130          1           0       23.751053    2.003584   -3.567858
    131          1           0       22.703909    0.872434   -2.764263
    132          1           0       23.653379    3.210637    0.703342
    133          1           0       23.942109    1.976752    1.858067
    134          1           0       21.768471    2.315240    2.374741
    135          1           0       21.227819    1.482242    0.936741
    136          1           0       28.284114    3.974420   -5.188937
    137          1           0       29.124864    5.115379   -4.209154
    138          1           0       27.413477    4.873282   -3.930916
    139          1           0       33.567760    3.459451   -4.086805
    140          1           0       32.910359    1.867695   -3.718054
    141          1           0       33.133293    3.017299   -2.476138
    142          1           0       32.686365    0.345580    0.782448
    143          1           0       31.983743   -2.651569    0.530719
    144          1           0       33.316371   -0.998978   -1.710550
    145          1           0       34.159103   -1.712690   -0.273371
    146          1           0       34.335913   -0.041513   -0.616161
    147          1           0       31.604972   -1.660887    3.259311
    148          1           0       33.088804   -1.034146    2.715056
    149          1           0       32.371098   -3.705021    3.612950
    150          1           0       33.967709   -2.974323    3.485732
    151          1           0       33.291732   -3.867006    2.145296
    152          1           0       26.558105   -4.781585    3.795807
    153          1           0       27.809962   -3.760664    4.593359
    154          1           0       28.315873   -4.758551    3.271492
    155          1           0       23.678091   -0.440437    2.783829
    156          1           0       20.015917   -2.538388    0.835376
    157          1           0       20.727677   -1.569262   -0.424400
    158          1           0       19.569697   -0.801061    0.669385
 ---------------------------------------------------------------------

 SCF Done:  E(RPBE1PBE) =  -4067.37074375     A.U. after   16 cycles

 Excitation energies and oscillator strengths:

 Excited State   1:      Singlet-A      1.8362 eV  675.21 nm  f=0.3811  <S**2>=0.000
     309 -> 316       -0.16424
     311 -> 313        0.69669
     311 <- 313       -0.11953
 This state for optimization and/or second-order correction.
 Total Energy, E(TD-HF/TD-DFT) =  -4067.30326373
 Copying the excited state density for this state as the 1-particle RhoCI density.

 Excited State   2:      Singlet-A      1.8639 eV  665.20 nm  f=0.3675  <S**2>=0.000
     310 -> 315       -0.18324
     312 -> 314        0.68971

 Excited State   3:      Singlet-A      1.9426 eV  638.23 nm  f=0.0000  <S**2>=0.000
     312 -> 313        0.70711

 Excited State   4:      Singlet-A      2.0359 eV  608.99 nm  f=0.0000  <S**2>=0.000
     311 -> 314        0.70711

 Excited State   5:      Singlet-A      2.2119 eV  560.54 nm  f=0.1056  <S**2>=0.000
     310 -> 314        0.65041
     312 -> 315        0.26771

 The electronic state is 1-A.
 Alpha  occ. eigenvalues --  -46.92748 -46.91968 -19.25964 -19.25874 -19.20874
 Alpha  occ. eigenvalues --  -19.19844 -19.19518 -19.19379 -19.18501 -19.18247
 Alpha  occ. eigenvalues --  -14.42138 -14.41960 -14.41564 -14.41368 -14.39364
 Alpha  occ. eigenvalues --  -14.39014 -14.38865 -14.38835 -10.37194 -10.35719
 Alpha  occ. eigenvalues --  -10.32863 -10.32818 -10.32487 -10.31699 -10.29471
 Alpha  occ. eigenvalues --  -10.29216 -10.29157 -10.29138 -10.29034 -10.28950
 Alpha  occ. eigenvalues --  -10.28860 -10.28497 -10.28493 -10.28419 -10.28196
 Alpha  occ. eigenvalues --  -10.28049 -10.27956 -10.27931 -10.27292 -10.26999
 Alpha  occ. eigenvalues --  -10.26904 -10.26846 -10.26800 -10.26719 -10.26620
 Alpha  occ. eigenvalues --  -10.26485 -10.26401 -10.26398 -10.26379 -10.26364
 Alpha  occ. eigenvalues --  -10.26256 -10.25934 -10.25928 -10.25922 -10.25886
 Alpha  occ. eigenvalues --  -10.25780 -10.25739 -10.25585 -10.25469 -10.25354
 Alpha  occ. eigenvalues --  -10.25349 -10.24940 -10.24899 -10.24794 -10.24730
 Alpha  occ. eigenvalues --  -10.24661 -10.24482 -10.24343 -10.24235 -10.24134
 Alpha  occ. eigenvalues --  -10.24081 -10.24048 -10.23945 -10.23940 -10.23861
 Alpha  occ. eigenvalues --  -10.23537 -10.23520 -10.23458 -10.23370 -10.23311
 Alpha  occ. eigenvalues --  -10.23239 -10.23228 -10.23191 -10.22943 -10.22842
 Alpha  occ. eigenvalues --  -10.22366  -3.14894  -3.14143  -1.87680  -1.87275
 Alpha  occ. eigenvalues --   -1.87123  -1.86985  -1.86519  -1.86370  -1.12653
 Alpha  occ. eigenvalues --   -1.10030  -1.06417  -1.05012  -1.04533  -1.03363
 Alpha  occ. eigenvalues --   -1.02653  -1.01358  -1.00046  -0.99250  -0.98454
 Alpha  occ. eigenvalues --   -0.98206  -0.97445  -0.97387  -0.96302  -0.96209
 Alpha  occ. eigenvalues --   -0.87046  -0.86322  -0.83846  -0.83737  -0.83226
 Alpha  occ. eigenvalues --   -0.83155  -0.82955  -0.82798  -0.81915  -0.81874
 Alpha  occ. eigenvalues --   -0.81094  -0.80562  -0.79972  -0.79526  -0.78773
 Alpha  occ. eigenvalues --   -0.78694  -0.78287  -0.77897  -0.77182  -0.76780
 Alpha  occ. eigenvalues --   -0.76683  -0.76038  -0.75205  -0.74860  -0.74853
 Alpha  occ. eigenvalues --   -0.74529  -0.72881  -0.72508  -0.71876  -0.71806
 Alpha  occ. eigenvalues --   -0.71210  -0.71108  -0.70611  -0.70605  -0.69615
 Alpha  occ. eigenvalues --   -0.69498  -0.67118  -0.66802  -0.66240  -0.66237
 Alpha  occ. eigenvalues --   -0.63924  -0.63501  -0.63322  -0.62660  -0.62360
 Alpha  occ. eigenvalues --   -0.62250  -0.61272  -0.61150  -0.60413  -0.60217
 Alpha  occ. eigenvalues --   -0.59729  -0.59531  -0.59402  -0.59152  -0.58853
 Alpha  occ. eigenvalues --   -0.58788  -0.57098  -0.56887  -0.55273  -0.54366
 Alpha  occ. eigenvalues --   -0.54012  -0.54001  -0.53805  -0.53634  -0.53487
 Alpha  occ. eigenvalues --   -0.53123  -0.53012  -0.52435  -0.52292  -0.52255
 Alpha  occ. eigenvalues --   -0.51143  -0.51123  -0.50216  -0.50210  -0.50067
 Alpha  occ. eigenvalues --   -0.49630  -0.48908  -0.48820  -0.48812  -0.48456
 Alpha  occ. eigenvalues --   -0.48438  -0.47919  -0.47916  -0.47741  -0.47500
 Alpha  occ. eigenvalues --   -0.47425  -0.47248  -0.46904  -0.46901  -0.46750
 Alpha  occ. eigenvalues --   -0.46346  -0.46265  -0.46109  -0.45907  -0.45582
 Alpha  occ. eigenvalues --   -0.45483  -0.45341  -0.45093  -0.44990  -0.44626
 Alpha  occ. eigenvalues --   -0.44503  -0.44450  -0.44393  -0.44323  -0.44230
 Alpha  occ. eigenvalues --   -0.43945  -0.43933  -0.43799  -0.43567  -0.43490
 Alpha  occ. eigenvalues --   -0.43334  -0.43286  -0.43149  -0.42876  -0.42835
 Alpha  occ. eigenvalues --   -0.42622  -0.42396  -0.42387  -0.42215  -0.41853
 Alpha  occ. eigenvalues --   -0.41678  -0.41279  -0.41123  -0.41042  -0.40993
 Alpha  occ. eigenvalues --   -0.40887  -0.40831  -0.40818  -0.40705  -0.40658
 Alpha  occ. eigenvalues --   -0.40623  -0.40350  -0.40222  -0.40022  -0.39968
 Alpha  occ. eigenvalues --   -0.39819  -0.39671  -0.39534  -0.39397  -0.39161
 Alpha  occ. eigenvalues --   -0.38878  -0.38811  -0.38619  -0.38455  -0.38275
 Alpha  occ. eigenvalues --   -0.38136  -0.38084  -0.37900  -0.37808  -0.37713
 Alpha  occ. eigenvalues --   -0.37513  -0.37442  -0.37389  -0.37194  -0.36822
 Alpha  occ. eigenvalues --   -0.36710  -0.36425  -0.36408  -0.36323  -0.36113
 Alpha  occ. eigenvalues --   -0.36040  -0.35733  -0.35667  -0.35541  -0.35360
 Alpha  occ. eigenvalues --   -0.35223  -0.35036  -0.34830  -0.34430  -0.34247
 Alpha  occ. eigenvalues --   -0.33461  -0.33431  -0.32919  -0.32700  -0.32360
 Alpha  occ. eigenvalues --   -0.32258  -0.32056  -0.31746  -0.31578  -0.31356
 Alpha  occ. eigenvalues --   -0.30880  -0.30868  -0.29802  -0.29698  -0.29572
 Alpha  occ. eigenvalues --   -0.28869  -0.28844  -0.28092  -0.27272  -0.26863
 Alpha  occ. eigenvalues --   -0.26360  -0.26337  -0.25957  -0.25713  -0.25334
 Alpha  occ. eigenvalues --   -0.25249  -0.24699  -0.24416  -0.21218  -0.20827
 Alpha  occ. eigenvalues --   -0.18795  -0.18790
 Alpha virt. eigenvalues --   -0.11412  -0.11072  -0.05399  -0.05038  -0.04400
 Alpha virt. eigenvalues --   -0.03561  -0.02289  -0.01976  -0.01564  -0.00226
 Alpha virt. eigenvalues --   -0.00176   0.00223   0.01058   0.01233   0.01609

 Mulliken charges:
               1
     1  Mg  11.999982
     2  C    6.000137
     3  C    5.999993
     4  C    5.999798
     5  C    6.000068
     6  N    7.000113
     7  C    5.999811
     8  C    6.000092
     9  C    5.999950
    10  C    6.000168
    11  C    5.999959
    12  C    6.000012
    13  C    5.999999
    14  H    0.999983
    15  N    6.999953
    16  C    6.000151
    17  C    6.000129
    18  C    6.000098
    19  C    6.000214
    20  C    5.999950
    21  C    6.000063
    22  O    8.000142
    23  C    5.999952
    24  N    6.999907
    25  C    6.000268
    26  C    5.999958
    27  C    6.000022
    28  C    5.999820
    29  C    6.000002
    30  C    6.000030
    31  C    6.000008
    32  N    6.999990
    33  C    5.999815
    34  C    5.999831
    35  C    5.999986
    36  C    5.999775
    37  C    6.000044
    38  C    5.999879
    39  O    7.999867
    40  C    6.000014
    41  C    5.999974
    42  O    7.999975
    43  O    8.000001
    44  C    6.000008
    45  H    1.000091
    46  H    1.000012
    47  H    0.999935
    48  H    0.999999
    49  H    1.000011
    50  H    1.000073
    51  H    0.999984
    52  H    1.000058
    53  H    0.999968
    54  H    0.999996
    55  H    1.000012
    56  H    1.000007
    57  H    1.000111
    58  H    1.000093
    59  H    1.000119
    60  H    1.000040
    61  H    1.000054
    62  H    1.000079
    63  H    0.999987
    64  H    0.999982
    65  H    0.999977
    66  H    1.000027
    67  H    1.000000
    68  H    1.000017
    69  H    0.999932
    70  H    1.000005
    71  H    0.999952
    72  H    1.000004
    73  H    0.999892
    74  H    0.999907
    75  H    0.999890
    76  H    0.999950
    77  H    0.999981
    78  H    0.999974
    79  H    0.999990
    80  Mg  12.000217
    81  C    6.022499
    82  C    6.000651
    83  C    5.967491
    84  C    6.000527
    85  N    7.014911
    86  C    5.971191
    87  C    6.008720
    88  C    5.991967
    89  C    6.025763
    90  C    5.994152
    91  C    6.004111
    92  C    6.000365
    93  H    0.992803
    94  N    6.996707
    95  C    6.037330
    96  C    6.024141
    97  C    6.006869
    98  C    6.038845
    99  C    5.995144
   100  C    6.011213
   101  O    8.017433
   102  C    5.997811
   103  N    6.990272
   104  C    6.037198
   105  C    5.991502
   106  C    6.010964
   107  C    5.970635
   108  C    5.999496
   109  C    6.004202
   110  C    6.001200
   111  N    7.000063
   112  C    5.968681
   113  C    5.967360
   114  C    5.998293
   115  C    5.969534
   116  C    5.999764
   117  C    5.982233
   118  O    7.975185
   119  C    5.999670
   120  C    5.994974
   121  O    7.997368
   122  O    7.998027
   123  C    6.001667
   124  H    1.012579
   125  H    1.003597
   126  H    0.986821
   127  H    0.999131
   128  H    1.000961
   129  H    1.005172
   130  H    0.998810
   131  H    1.015508
   132  H    0.989954
   133  H    1.005811
   134  H    1.003001
   135  H    1.002465
   136  H    1.019095
   137  H    1.014923
   138  H    1.018149
   139  H    1.011283
   140  H    1.010145
   141  H    1.011183
   142  H    0.999840
   143  H    0.995992
   144  H    0.996752
   145  H    1.007794
   146  H    0.996607
   147  H    1.003405
   148  H    0.988515
   149  H    1.003696
   150  H    0.993674
   151  H    0.995751
   152  H    0.984939
   153  H    0.979783
   154  H    0.984257
   155  H    0.992214
   156  H    0.999307
   157  H    0.994477
   158  H    0.995258
 Sum of Mulliken charges = 624.00000

 Dipole moment (field-independent basis, Debye):
    X=              2.3590    Y=              7.1199    Z=             -7.2938  Tot=             10.4622
 Quadrupole moment (field-independent basis, Debye-Ang):
   XX=            125.0971   YY=              1.1861   ZZ=              4.9439
   XY=            201.0160   XZ=           -207.7859   YZ=             -3.2390

 Normal termination of Gaussian 16 at Fri Oct 15 13:40:04 2021.
