 Gaussian 16, Revision A.03,
 Gaussian 16:  ES64L-G16RevA.03 25-Dec-2016

 --------------------------------------------------------
 #p PBE1PBE/Def2SVP td=(nstates=5) density=(transition=1)
 --------------------------------------------------------

 --------------------------------
 TDDFT excited states in gaussian
 --------------------------------
 Symbolic Z-matrix:
 Charge =  0 Multiplicity = 1

                         Standard orientation:
 ---------------------------------------------------------------------
 Center     Atomic      Atomic             Coordinates (Angstroms)
 Number     Number       Type             X           Y           Z
 ---------------------------------------------------------------------
      1         12           0       -0.811082    0.051755    0.116600
      2          6           0        2.744947    0.039066    0.279626
      3          6           0       -0.732394   -3.383369   -0.011122
      4          6           0       -4.102204    0.261778   -0.091444
      5          6           0       -0.720045    3.626041   -0.251529
      6          7           0        0.869906   -1.556441    0.063320
      7          6           0        2.207392   -1.258661    0.249789
      8          6           0        2.953198   -2.635183    0.320694
      9          6           0        1.811341   -3.776995    0.181349
     10          6           0        0.590917   -2.859290    0.056159
     11          6           0        2.016975   -4.809595   -0.946451
     12          6           0        3.969712   -2.843493    1.518231
     13          6           0        5.385559   -3.148763    1.123978
     14          1           0        5.764691   -3.839637   -0.159281
     15          7           0       -2.293909   -1.435908    0.092791
     16          6           0       -2.042368   -2.770486    0.034271
     17          6           0       -3.319021   -3.418780    0.190553
     18          6           0       -4.299733   -2.411087    0.066531
     19          6           0       -3.611864   -1.081481   -0.012991
     20          6           0       -3.398754   -4.952733    0.268610
     21          6           0       -5.776530   -2.602338   -0.102795
     22          8           0       -6.542495   -1.634442   -0.323528
     23          6           0       -6.341400   -3.973840   -0.066134
     24          7           0       -2.182246    1.770698   -0.204801
     25          6           0       -3.454282    1.574938   -0.169619
     26          6           0       -4.401941    2.888597   -0.228019
     27          6           0       -3.295127    3.951634   -0.299189
     28          6           0       -2.030656    3.129381   -0.250253
     29          6           0       -5.339470    2.806437   -1.487951
     30          6           0       -3.309829    5.065275    0.806192
     31          6           0       -2.887100    4.632496    2.230175
     32          7           0        0.649718    1.467556   -0.089722
     33          6           0        0.508155    2.865376   -0.256083
     34          6           0        1.850159    3.461426   -0.206349
     35          6           0        2.751547    2.391696    0.010539
     36          6           0        1.966633    1.194185    0.118205
     37          6           0        2.169146    4.981767   -0.326421
     38          6           0        4.080677    2.129507    0.187182
     39          8           0        5.065395    2.838788    0.149220
     40          6           0        4.189898    0.599188    0.435927
     41          6           0        5.139956    0.049882   -0.503635
     42          8           0        4.859639   -0.346600   -1.640472
     43          8           0        6.441890    0.252442   -0.030575
     44          6           0        7.506588   -0.101443   -1.001795
     45          1           0       -0.835762   -4.429854   -0.306763
     46          1           0       -5.168675    0.303375   -0.322805
     47          1           0       -0.635913    4.709736   -0.355856
     48          1           0        3.603354   -2.499065   -0.542555
     49          1           0        1.817946   -4.390028    1.081501
     50          1           0        2.007355   -5.824230   -0.546247
     51          1           0        2.906088   -4.690539   -1.565417
     52          1           0        1.154065   -4.659739   -1.595324
     53          1           0        3.609553   -3.631129    2.180350
     54          1           0        3.999695   -1.885308    2.037023
     55          1           0        5.715756   -3.958480    1.775664
     56          1           0        5.964587   -2.231908    1.228641
     57          1           0       -2.434068   -5.402707    0.504264
     58          1           0       -3.760916   -5.349684   -0.678872
     59          1           0       -4.112089   -5.145426    1.069292
     60          1           0       -6.065653   -4.402764    0.897259
     61          1           0       -5.898321   -4.607471   -0.835397
     62          1           0       -7.412916   -3.953474   -0.260865
     63          1           0       -4.986956    2.997013    0.685607
     64          1           0       -3.251083    4.363337   -1.307746
     65          1           0       -4.816121    2.233872   -2.253654
     66          1           0       -5.478052    3.817337   -1.872948
     67          1           0       -6.328291    2.364552   -1.362510
     68          1           0       -4.254391    5.607198    0.771210
     69          1           0       -2.629349    5.852162    0.482344
     70          1           0       -3.123452    3.610136    2.523260
     71          1           0       -3.276469    5.367234    2.935818
     72          1           0       -1.806438    4.771892    2.254667
     73          1           0        2.827959    5.345168    0.462319
     74          1           0        1.278160    5.607099   -0.370381
     75          1           0        2.868182    5.131587   -1.149608
     76          1           0        4.585270    0.572587    1.450813
     77          1           0        7.515565    0.602267   -1.833757
     78          1           0        7.388640   -1.080900   -1.463896
     79          1           0        8.420827   -0.224914   -0.421004
 ---------------------------------------------------------------------

 SCF Done:  E(RPBE1PBE) =  -2033.68717984     A.U. after   15 cycles

 Excitation energies and oscillator strengths:

 Excited State   1:      Singlet-A      1.8677 eV  663.83 nm  f=0.3643  <S**2>=0.000
     155 ->158         0.18698
     156 ->157         0.68780
 This state for optimization and/or second-order correction.
 Total Energy, E(TD-HF/TD-DFT) =  -2033.61854252
 Copying the excited state density for this state as the 1-particle RhoCI density.

 Excited State   2:      Singlet-A      2.2069 eV  561.80 nm  f=0.1039  <S**2>=0.000
     155 ->157         0.65394
     156 ->158        -0.25860

 Excited State   3:      Singlet-A      2.9956 eV  413.89 nm  f=0.0000  <S**2>=0.000
     152 ->157         0.65360
     152 ->159        -0.16778
     152 ->160         0.10719
     154 ->157         0.13358

 Excited State   4:      Singlet-A      3.0162 eV  411.06 nm  f=0.0015  <S**2>=0.000
     152 ->157        -0.12990
     154 ->157         0.65879
     154 ->159         0.15355

 Excited State   5:      Singlet-A      3.1594 eV  392.43 nm  f=0.0159  <S**2>=0.000
     151 ->157        -0.40393
     153 ->157         0.52700
     156 ->158        -0.19430

 The electronic state is 1-A.
 Alpha  occ. eigenvalues --  -46.93202 -19.25007 -19.19600 -19.18695 -19.18135
 Alpha  occ. eigenvalues --  -14.42061 -14.41432 -14.39532 -14.39297 -10.35683
 Alpha  occ. eigenvalues --  -10.31885 -10.30686 -10.29432 -10.29169 -10.29018
 Alpha  occ. eigenvalues --  -10.28804 -10.28228 -10.28169 -10.28084 -10.28072
 Alpha  occ. eigenvalues --  -10.26757 -10.26618 -10.26574 -10.26168 -10.26127
 Alpha  occ. eigenvalues --  -10.25996 -10.25976 -10.25507 -10.25475 -10.25310
 Alpha  occ. eigenvalues --  -10.25306 -10.25133 -10.25014 -10.24936 -10.24886
 Alpha  occ. eigenvalues --  -10.24560 -10.24221 -10.23760 -10.23676 -10.23412
 Alpha  occ. eigenvalues --  -10.23386 -10.23339 -10.22015  -3.15125  -1.87979
 Alpha  occ. eigenvalues --   -1.87534  -1.87304  -1.09167  -1.04319  -1.02867
 Alpha  occ. eigenvalues --   -1.01203  -1.00742  -0.98189  -0.97597  -0.96602
 Alpha  occ. eigenvalues --   -0.86872  -0.84066  -0.82385  -0.82047  -0.81402
 Alpha  occ. eigenvalues --   -0.81113  -0.79936  -0.78560  -0.77700  -0.76845
 Alpha  occ. eigenvalues --   -0.76218  -0.75038  -0.74399  -0.72442  -0.71889
 Alpha  occ. eigenvalues --   -0.70787  -0.70105  -0.69323  -0.67079  -0.65996
 Alpha  occ. eigenvalues --   -0.64792  -0.63545  -0.62269  -0.61226  -0.59797
 Alpha  occ. eigenvalues --   -0.59433  -0.59123  -0.58787  -0.56097  -0.54600
 Alpha  occ. eigenvalues --   -0.54126  -0.53268  -0.52715  -0.52459  -0.52132
 Alpha  occ. eigenvalues --   -0.50837  -0.50565  -0.49872  -0.49441  -0.48172
 Alpha  occ. eigenvalues --   -0.47651  -0.47561  -0.47313  -0.47207  -0.46602
 Alpha  occ. eigenvalues --   -0.46114  -0.45828  -0.45512  -0.44833  -0.44466
 Alpha  occ. eigenvalues --   -0.44113  -0.43845  -0.43769  -0.43528  -0.43352
 Alpha  occ. eigenvalues --   -0.43217  -0.42659  -0.42497  -0.42191  -0.42017
 Alpha  occ. eigenvalues --   -0.41438  -0.41330  -0.41234  -0.40897  -0.40610
 Alpha  occ. eigenvalues --   -0.40288  -0.39800  -0.39479  -0.39120  -0.38660
 Alpha  occ. eigenvalues --   -0.38480  -0.38066  -0.37994  -0.37649  -0.37395
 Alpha  occ. eigenvalues --   -0.37209  -0.36763  -0.36689  -0.36514  -0.36198
 Alpha  occ. eigenvalues --   -0.36069  -0.35967  -0.35507  -0.35032  -0.34667
 Alpha  occ. eigenvalues --   -0.34065  -0.31939  -0.31709  -0.31501  -0.31078
 Alpha  occ. eigenvalues --   -0.30573  -0.29138  -0.28676  -0.28462  -0.26862
 Alpha  occ. eigenvalues --   -0.25758  -0.25626  -0.25508  -0.25188  -0.20716
 Alpha  occ. eigenvalues --   -0.18844
 Alpha virt. eigenvalues --   -0.11065  -0.05271  -0.04040  -0.02076  -0.00174
 Alpha virt. eigenvalues --    0.00362   0.01473   0.02555   0.02871   0.03825
 Alpha virt. eigenvalues --    0.05132   0.05286   0.05825   0.06320   0.07429

 Mulliken charges:
               1
     1  Mg  11.999554
     2  C    5.990765
     3  C    6.015957
     4  C    6.000842
     5  C    5.983791
     6  N    6.997511
     7  C    6.021864
     8  C    5.993328
     9  C    6.015858
    10  C    5.965830
    11  C    5.999329
    12  C    5.998564
    13  C    5.997840
    14  H    1.004710
    15  N    7.012594
    16  C    5.960619
    17  C    5.982643
    18  C    5.985438
    19  C    5.973319
    20  C    6.000910
    21  C    5.987314
    22  O    7.971579
    23  C    6.004156
    24  N    6.990628
    25  C    5.973530
    26  C    6.006869
    27  C    5.992167
    28  C    6.039023
    29  C    6.004239
    30  C    5.995852
    31  C    5.996877
    32  N    6.998983
    33  C    6.042334
    34  C    6.026290
    35  C    6.001402
    36  C    6.025539
    37  C    5.999192
    38  C    6.014994
    39  O    8.027784
    40  C    6.000957
    41  C    6.004738
    42  O    8.008711
    43  O    7.999711
    44  C    5.997308
    45  H    0.995499
    46  H    0.993168
    47  H    1.007631
    48  H    0.997319
    49  H    0.996192
    50  H    0.998028
    51  H    0.989947
    52  H    1.003376
    53  H    1.007873
    54  H    0.994765
    55  H    1.003889
    56  H    0.995264
    57  H    0.984006
    58  H    0.983592
    59  H    0.986490
    60  H    0.992932
    61  H    0.993042
    62  H    0.986147
    63  H    0.999688
    64  H    1.001721
    65  H    1.000394
    66  H    0.989574
    67  H    1.004061
    68  H    1.008899
    69  H    0.996970
    70  H    1.010718
    71  H    1.004565
    72  H    0.991991
    73  H    1.017262
    74  H    1.017131
    75  H    1.016876
    76  H    1.007406
    77  H    1.001071
    78  H    1.006079
    79  H    1.004988
 Sum of Mulliken charges = 312.00000

 Dipole moment (field-independent basis, Debye):
    X=              7.4655    Y=              6.8660    Z=             -0.0358  Tot=             10.1428
 Quadrupole moment (field-independent basis, Debye-Ang):
   XX=             -9.4454   YY=              1.0736   ZZ=              0.3865
   XY=             -6.2929   XZ=             -0.7824   YZ=             -0.3516

 Normal termination of Gaussian 16 at Wed Oct 13 19:12:56 2021.
