 Gaussian 16, Revision A.03,
 Gaussian 16:  ES64L-G16RevA.03 25-Dec-2016

 --------------------------------------------------------
 #p PBE1PBE/Def2SVP td=(nstates=5) density=(transition=1)
 --------------------------------------------------------

 --------------------------------
 TDDFT excited states in gaussian
 --------------------------------
 Symbolic Z-matrix:
 Charge =  0 Multiplicity = 1

                         Standard orientation:
 ---------------------------------------------------------------------
 Center     Atomic      Atomic             Coordinates (Angstroms)
 Number     Number       Type             X           Y           Z
 ---------------------------------------------------------------------
      1         12           0      -25.824286   -0.412586   -0.486939
      2          6           0      -24.010943    2.508281   -0.249557
      3          6           0      -28.153888    1.026415    1.564713
      4          6           0      -27.463670   -3.364994   -0.476040
      5          6           0      -23.138239   -1.955627   -2.065960
      6          7           0      -25.915147    1.559617    0.636928
      7          6           0      -25.215358    2.608103    0.430841
      8          6           0      -25.701295    3.958012    1.172455
      9          6           0      -26.895016    3.335311    1.998824
     10          6           0      -26.983399    1.833585    1.448120
     11          6           0      -26.657897    3.261895    3.597409
     12          6           0      -26.134482    5.148017    0.210923
     13          6           0      -25.901981    6.616514    0.714983
     14          1           0      -25.530996    6.780719    2.157907
     15          7           0      -27.554941   -1.048835    0.325904
     16          6           0      -28.484448   -0.265449    1.116789
     17          6           0      -29.636734   -1.113795    1.402850
     18          6           0      -29.402079   -2.423478    0.914874
     19          6           0      -28.120625   -2.314814    0.181601
     20          6           0      -30.787680   -0.477667    2.095605
     21          6           0      -30.276624   -3.698450    0.958276
     22          8           0      -29.940264   -4.787952    0.600414
     23          6           0      -31.623818   -3.536853    1.691096
     24          7           0      -25.374209   -2.452917   -1.066484
     25          6           0      -26.164987   -3.474764   -0.972831
     26          6           0      -25.433659   -4.802726   -1.319112
     27          6           0      -24.091981   -4.336704   -1.933563
     28          6           0      -24.180301   -2.809184   -1.706310
     29          6           0      -25.275541   -5.691761   -0.067270
     30          6           0      -23.928309   -4.781611   -3.419308
     31          6           0      -23.680972   -6.285060   -3.623379
     32          7           0      -23.920872    0.129277   -1.070106
     33          6           0      -22.988037   -0.590605   -1.795247
     34          6           0      -21.894647    0.306732   -2.061154
     35          6           0      -22.184471    1.563255   -1.449873
     36          6           0      -23.476914    1.351575   -0.897082
     37          6           0      -20.708166   -0.040359   -2.753427
     38          6           0      -21.795009    2.920622   -1.236100
     39          8           0      -20.699260    3.482117   -1.535493
     40          6           0      -22.936027    3.539225   -0.338747
     41          6           0      -22.324873    3.967918    0.901212
     42          8           0      -22.078849    3.222875    1.849438
     43          8           0      -21.952179    5.277615    0.735934
     44          6           0      -21.084142    5.775026    1.824150
     45          1           0      -28.901434    1.449534    2.238273
     46          1           0      -28.062124   -4.278817   -0.451661
     47          1           0      -22.352524   -2.467565   -2.626271
     48          1           0      -24.869426    4.193957    1.836590
     49          1           0      -27.801684    3.920148    1.845117
     50          1           0      -25.585572    3.334571    3.781109
     51          1           0      -27.035422    2.314161    3.980991
     52          1           0      -27.149685    4.029934    4.195261
     53          1           0      -27.208489    5.003448    0.096890
     54          1           0      -25.871724    5.039823   -0.841948
     55          1           0      -26.751624    7.278349    0.547547
     56          1           0      -25.040079    7.035984    0.195987
     57          1           0      -30.636650   -0.482419    3.175460
     58          1           0      -31.751948   -0.854455    1.754256
     59          1           0      -30.813341    0.561966    1.769965
     60          1           0      -32.380215   -2.981959    1.135191
     61          1           0      -31.310488   -3.025868    2.600930
     62          1           0      -32.093330   -4.459415    2.031170
     63          1           0      -26.084017   -5.234866   -2.079257
     64          1           0      -23.265509   -4.701058   -1.323451
     65          1           0      -25.287202   -5.168972    0.889358
     66          1           0      -24.345480   -6.248565    0.051726
     67          1           0      -26.109616   -6.392300   -0.107049
     68          1           0      -23.057474   -4.280843   -3.840096
     69          1           0      -24.803166   -4.475367   -3.993838
     70          1           0      -23.769264   -6.767467   -2.649927
     71          1           0      -22.621770   -6.441371   -3.828280
     72          1           0      -24.228161   -6.808953   -4.406733
     73          1           0      -21.053971   -0.611929   -3.614807
     74          1           0      -20.005952   -0.679918   -2.218924
     75          1           0      -20.147552    0.872557   -2.957041
     76          1           0      -23.240538    4.418225   -0.907451
     77          1           0      -20.150049    5.218595    1.741997
     78          1           0      -21.584145    5.741916    2.791571
     79          1           0      -20.872317    6.823353    1.613235
     80         12           0       25.037497   -0.794723    0.337429
     81          6           0       25.618683    2.387193   -1.198482
     82          6           0       25.253596    0.706375    3.418648
     83          6           0       24.961761   -3.801620    1.873871
     84          6           0       25.810930   -2.258346   -2.777209
     85          7           0       25.382883    1.301526    0.995624
     86          6           0       25.526522    2.466580    0.225826
     87          6           0       25.593469    3.659468    1.144644
     88          6           0       25.990814    2.997558    2.531030
     89          6           0       25.563764    1.519311    2.293003
     90          6           0       27.541644    3.160020    2.716482
     91          6           0       24.308261    4.560103    1.123783
     92          6           0       24.671500    5.958550    1.082662
     93          1           0       23.470595    6.962352    0.701959
     94          7           0       24.929026   -1.355266    2.394040
     95          6           0       24.995307   -0.591031    3.490784
     96          6           0       24.769866   -1.402765    4.647103
     97          6           0       24.699056   -2.719784    4.244214
     98          6           0       24.812673   -2.697973    2.713020
     99          6           0       24.847752   -0.825532    6.096185
    100          6           0       24.434792   -3.982012    5.090590
    101          8           0       24.444029   -5.059992    4.552228
    102          6           0       24.077750   -3.870768    6.554094
    103          7           0       25.621419   -2.740457   -0.339493
    104          6           0       25.352547   -3.823696    0.489907
    105          6           0       25.395151   -5.103981   -0.279171
    106          6           0       25.647314   -4.614174   -1.787973
    107          6           0       25.633521   -3.109124   -1.659806
    108          6           0       26.383255   -6.081004    0.262445
    109          6           0       24.622709   -5.149963   -2.931717
    110          6           0       25.175501   -5.957883   -4.038527
    111          7           0       25.555525   -0.137858   -1.629702
    112          6           0       25.835640   -0.878158   -2.756079
    113          6           0       26.062160    0.097041   -3.909558
    114          6           0       25.874288    1.385897   -3.371238
    115          6           0       25.619980    1.190279   -1.968517
    116          6           0       26.444172   -0.317713   -5.336996
    117          6           0       26.004385    2.772439   -3.702971
    118          8           0       26.257141    3.324000   -4.797823
    119          6           0       26.014827    3.485660   -2.288939
    120          6           0       25.080473    4.722992   -2.444821
    121          8           0       23.913959    4.698063   -2.011383
    122          8           0       25.766799    5.750519   -3.002415
    123          6           0       24.799865    6.854349   -3.329062
    124          1           0       25.097564    1.195180    4.382968
    125          1           0       24.920469   -4.786244    2.345679
    126          1           0       25.961846   -2.613818   -3.798511
    127          1           0       26.467594    4.227167    0.826508
    128          1           0       25.484678    3.477749    3.367739
    129          1           0       28.128725    2.495498    2.083053
    130          1           0       27.784039    3.025783    3.769820
    131          1           0       27.816832    4.186963    2.475024
    132          1           0       23.847648    4.454167    2.106271
    133          1           0       23.606287    4.253126    0.348115
    134          1           0       25.355215    6.163133    0.258606
    135          1           0       25.076846    6.218900    2.060733
    136          1           0       23.885879   -1.111370    6.521766
    137          1           0       24.928570    0.259788    6.154696
    138          1           0       25.714663   -1.237640    6.612476
    139          1           0       24.009516   -4.859668    7.007576
    140          1           0       23.115781   -3.379861    6.407019
    141          1           0       24.830886   -3.250232    7.039623
    142          1           0       24.376837   -5.477624   -0.170188
    143          1           0       26.640954   -4.965684   -2.064741
    144          1           0       25.771051   -6.871630    0.694431
    145          1           0       26.952376   -5.688921    1.105204
    146          1           0       27.099648   -6.474732   -0.458933
    147          1           0       24.286754   -4.217462   -3.385152
    148          1           0       23.776352   -5.612072   -2.425300
    149          1           0       25.050410   -5.452771   -4.995940
    150          1           0       24.436003   -6.756288   -3.987270
    151          1           0       26.163166   -6.367363   -3.822175
    152          1           0       27.531968   -0.270994   -5.373961
    153          1           0       26.025166    0.347584   -6.091863
    154          1           0       26.037360   -1.308797   -5.538034
    155          1           0       27.059625    3.767323   -2.165260
    156          1           0       24.160952    6.664523   -4.191378
    157          1           0       25.257025    7.831956   -3.478507
    158          1           0       24.202023    6.991755   -2.427835
 ---------------------------------------------------------------------

 SCF Done:  E(RPBE1PBE) =  -4067.35958698     A.U. after   16 cycles

 Excitation energies and oscillator strengths:

 Excited State   1:      Singlet-A      1.8304 eV  677.35 nm  f=0.0000  <S**2>=0.000
     312 -> 313        0.70711
 This state for optimization and/or second-order correction.
 Total Energy, E(TD-HF/TD-DFT) =  -4067.29231959
 Copying the excited state density for this state as the 1-particle RhoCI density.

 Excited State   2:      Singlet-A      1.8312 eV  677.06 nm  f=0.3457  <S**2>=0.000
     309 -> 315        0.18198
     312 -> 314        0.68927

 Excited State   3:      Singlet-A      1.9096 eV  649.28 nm  f=0.3726  <S**2>=0.000
     310 -> 316        0.19448
     311 -> 313        0.68531

 Excited State   4:      Singlet-A      2.2083 eV  561.44 nm  f=0.1058  <S**2>=0.000
     310 -> 313        0.65636
     311 -> 316       -0.25139

 Excited State   5:      Singlet-A      2.2649 eV  547.43 nm  f=0.0000  <S**2>=0.000
     311 -> 314        0.70711

 The electronic state is 1-A.
 Alpha  occ. eigenvalues --  -46.92790 -46.91811 -19.26827 -19.25457 -19.20189
 Alpha  occ. eigenvalues --  -19.20054 -19.19539 -19.19450 -19.19156 -19.18664
 Alpha  occ. eigenvalues --  -14.41703 -14.41598 -14.41478 -14.41074 -14.39323
 Alpha  occ. eigenvalues --  -14.38905 -14.38902 -14.38662 -10.36771 -10.35543
 Alpha  occ. eigenvalues --  -10.33242 -10.32583 -10.32196 -10.32045 -10.29454
 Alpha  occ. eigenvalues --  -10.28886 -10.28866 -10.28830 -10.28777 -10.28589
 Alpha  occ. eigenvalues --  -10.28484 -10.28439 -10.28394 -10.28199 -10.28172
 Alpha  occ. eigenvalues --  -10.28117 -10.27982 -10.27207 -10.26885 -10.26834
 Alpha  occ. eigenvalues --  -10.26754 -10.26736 -10.26690 -10.26690 -10.26642
 Alpha  occ. eigenvalues --  -10.26462 -10.26288 -10.26186 -10.26069 -10.26007
 Alpha  occ. eigenvalues --  -10.25865 -10.25601 -10.25530 -10.25440 -10.25390
 Alpha  occ. eigenvalues --  -10.25375 -10.25290 -10.25279 -10.25247 -10.25242
 Alpha  occ. eigenvalues --  -10.25210 -10.24969 -10.24785 -10.24772 -10.24702
 Alpha  occ. eigenvalues --  -10.24429 -10.24390 -10.24231 -10.24145 -10.24063
 Alpha  occ. eigenvalues --  -10.24022 -10.23763 -10.23659 -10.23585 -10.23578
 Alpha  occ. eigenvalues --  -10.23566 -10.23423 -10.23122 -10.22976 -10.22896
 Alpha  occ. eigenvalues --  -10.22842 -10.22778 -10.22699 -10.22491 -10.22399
 Alpha  occ. eigenvalues --  -10.22210  -3.14712  -3.14001  -1.87546  -1.87072
 Alpha  occ. eigenvalues --   -1.86934  -1.86835  -1.86380  -1.86228  -1.10839
 Alpha  occ. eigenvalues --   -1.10278  -1.07108  -1.06251  -1.02715  -1.02033
 Alpha  occ. eigenvalues --   -1.01959  -1.01592  -1.00009  -0.98979  -0.98550
 Alpha  occ. eigenvalues --   -0.98269  -0.97562  -0.97349  -0.96234  -0.95334
 Alpha  occ. eigenvalues --   -0.86947  -0.85663  -0.83606  -0.83175  -0.82908
 Alpha  occ. eigenvalues --   -0.82589  -0.82477  -0.82034  -0.81822  -0.81572
 Alpha  occ. eigenvalues --   -0.81491  -0.81308  -0.81099  -0.79923  -0.78664
 Alpha  occ. eigenvalues --   -0.78202  -0.78129  -0.77724  -0.76845  -0.76572
 Alpha  occ. eigenvalues --   -0.76522  -0.75815  -0.75362  -0.75032  -0.74775
 Alpha  occ. eigenvalues --   -0.74583  -0.72758  -0.72354  -0.71847  -0.71708
 Alpha  occ. eigenvalues --   -0.70900  -0.70670  -0.70043  -0.69801  -0.69218
 Alpha  occ. eigenvalues --   -0.69174  -0.66697  -0.66579  -0.65946  -0.65900
 Alpha  occ. eigenvalues --   -0.63747  -0.63138  -0.63118  -0.62668  -0.62320
 Alpha  occ. eigenvalues --   -0.61849  -0.61344  -0.60699  -0.60190  -0.59801
 Alpha  occ. eigenvalues --   -0.59504  -0.59340  -0.59298  -0.58990  -0.58798
 Alpha  occ. eigenvalues --   -0.58634  -0.56673  -0.56142  -0.54475  -0.54386
 Alpha  occ. eigenvalues --   -0.53970  -0.53685  -0.53675  -0.53002  -0.52897
 Alpha  occ. eigenvalues --   -0.52820  -0.52459  -0.52151  -0.52018  -0.51538
 Alpha  occ. eigenvalues --   -0.50540  -0.50494  -0.50171  -0.50015  -0.49768
 Alpha  occ. eigenvalues --   -0.49648  -0.49100  -0.48895  -0.48569  -0.48562
 Alpha  occ. eigenvalues --   -0.48098  -0.48047  -0.47858  -0.47649  -0.47578
 Alpha  occ. eigenvalues --   -0.47361  -0.47324  -0.47156  -0.47143  -0.47022
 Alpha  occ. eigenvalues --   -0.46750  -0.46477  -0.46471  -0.45949  -0.45598
 Alpha  occ. eigenvalues --   -0.45590  -0.45438  -0.45286  -0.45196  -0.45035
 Alpha  occ. eigenvalues --   -0.44877  -0.44809  -0.44516  -0.44090  -0.43997
 Alpha  occ. eigenvalues --   -0.43818  -0.43709  -0.43577  -0.43413  -0.43294
 Alpha  occ. eigenvalues --   -0.43144  -0.43090  -0.42822  -0.42792  -0.42561
 Alpha  occ. eigenvalues --   -0.42476  -0.42468  -0.42448  -0.42129  -0.41656
 Alpha  occ. eigenvalues --   -0.41332  -0.41274  -0.41204  -0.41143  -0.41010
 Alpha  occ. eigenvalues --   -0.40983  -0.40907  -0.40712  -0.40500  -0.40374
 Alpha  occ. eigenvalues --   -0.40152  -0.39903  -0.39685  -0.39478  -0.39257
 Alpha  occ. eigenvalues --   -0.39188  -0.39078  -0.39066  -0.38916  -0.38768
 Alpha  occ. eigenvalues --   -0.38492  -0.38471  -0.38268  -0.38197  -0.37881
 Alpha  occ. eigenvalues --   -0.37805  -0.37777  -0.37775  -0.37604  -0.37579
 Alpha  occ. eigenvalues --   -0.37493  -0.37250  -0.37112  -0.36853  -0.36814
 Alpha  occ. eigenvalues --   -0.36609  -0.36474  -0.36387  -0.36284  -0.36068
 Alpha  occ. eigenvalues --   -0.36031  -0.35664  -0.35479  -0.35143  -0.35099
 Alpha  occ. eigenvalues --   -0.34684  -0.34671  -0.34315  -0.33730  -0.33452
 Alpha  occ. eigenvalues --   -0.33169  -0.32945  -0.32936  -0.32608  -0.32254
 Alpha  occ. eigenvalues --   -0.32079  -0.31961  -0.31959  -0.31481  -0.31392
 Alpha  occ. eigenvalues --   -0.31151  -0.29917  -0.29559  -0.29270  -0.29089
 Alpha  occ. eigenvalues --   -0.28965  -0.28579  -0.28353  -0.27095  -0.26957
 Alpha  occ. eigenvalues --   -0.26243  -0.25983  -0.25942  -0.25770  -0.25465
 Alpha  occ. eigenvalues --   -0.25383  -0.25064  -0.24953  -0.21044  -0.20609
 Alpha  occ. eigenvalues --   -0.18831  -0.17910
 Alpha virt. eigenvalues --   -0.10925  -0.10248  -0.05865  -0.05134  -0.04224
 Alpha virt. eigenvalues --   -0.04216  -0.02270  -0.01960  -0.00890  -0.00110
 Alpha virt. eigenvalues --    0.00488   0.00882   0.01040   0.01513   0.01687

 Mulliken charges:
               1
     1  Mg  12.000000
     2  C    6.000000
     3  C    6.000000
     4  C    6.000000
     5  C    6.000000
     6  N    7.000000
     7  C    6.000000
     8  C    6.000000
     9  C    6.000000
    10  C    6.000000
    11  C    6.000000
    12  C    6.000000
    13  C    6.000000
    14  H    1.000000
    15  N    7.000000
    16  C    6.000000
    17  C    6.000000
    18  C    6.000000
    19  C    6.000000
    20  C    6.000000
    21  C    6.000000
    22  O    8.000000
    23  C    6.000000
    24  N    7.000000
    25  C    6.000000
    26  C    6.000000
    27  C    6.000000
    28  C    6.000000
    29  C    6.000000
    30  C    6.000000
    31  C    6.000000
    32  N    7.000000
    33  C    6.000000
    34  C    6.000000
    35  C    6.000000
    36  C    6.000000
    37  C    6.000000
    38  C    6.000000
    39  O    8.000000
    40  C    6.000000
    41  C    6.000000
    42  O    8.000000
    43  O    8.000000
    44  C    6.000000
    45  H    1.000000
    46  H    1.000000
    47  H    1.000000
    48  H    1.000000
    49  H    1.000000
    50  H    1.000000
    51  H    1.000000
    52  H    1.000000
    53  H    1.000000
    54  H    1.000000
    55  H    1.000000
    56  H    1.000000
    57  H    1.000000
    58  H    1.000000
    59  H    1.000000
    60  H    1.000000
    61  H    1.000000
    62  H    1.000000
    63  H    1.000000
    64  H    1.000000
    65  H    1.000000
    66  H    1.000000
    67  H    1.000000
    68  H    1.000000
    69  H    1.000000
    70  H    1.000000
    71  H    1.000000
    72  H    1.000000
    73  H    1.000000
    74  H    1.000000
    75  H    1.000000
    76  H    1.000000
    77  H    1.000000
    78  H    1.000000
    79  H    1.000000
    80  Mg  12.000000
    81  C    6.000000
    82  C    6.000000
    83  C    6.000000
    84  C    6.000000
    85  N    7.000000
    86  C    6.000000
    87  C    6.000000
    88  C    6.000000
    89  C    6.000000
    90  C    6.000000
    91  C    6.000000
    92  C    6.000000
    93  H    1.000000
    94  N    7.000000
    95  C    6.000000
    96  C    6.000000
    97  C    6.000000
    98  C    6.000000
    99  C    6.000000
   100  C    6.000000
   101  O    8.000000
   102  C    6.000000
   103  N    7.000000
   104  C    6.000000
   105  C    6.000000
   106  C    6.000000
   107  C    6.000000
   108  C    6.000000
   109  C    6.000000
   110  C    6.000000
   111  N    7.000000
   112  C    6.000000
   113  C    6.000000
   114  C    6.000000
   115  C    6.000000
   116  C    6.000000
   117  C    6.000000
   118  O    8.000000
   119  C    6.000000
   120  C    6.000000
   121  O    8.000000
   122  O    8.000000
   123  C    6.000000
   124  H    1.000000
   125  H    1.000000
   126  H    1.000000
   127  H    1.000000
   128  H    1.000000
   129  H    1.000000
   130  H    1.000000
   131  H    1.000000
   132  H    1.000000
   133  H    1.000000
   134  H    1.000000
   135  H    1.000000
   136  H    1.000000
   137  H    1.000000
   138  H    1.000000
   139  H    1.000000
   140  H    1.000000
   141  H    1.000000
   142  H    1.000000
   143  H    1.000000
   144  H    1.000000
   145  H    1.000000
   146  H    1.000000
   147  H    1.000000
   148  H    1.000000
   149  H    1.000000
   150  H    1.000000
   151  H    1.000000
   152  H    1.000000
   153  H    1.000000
   154  H    1.000000
   155  H    1.000000
   156  H    1.000000
   157  H    1.000000
   158  H    1.000000
 Sum of Mulliken charges = 624.00000

 Dipole moment (field-independent basis, Debye):
    X=              0.0000    Y=             -0.0000    Z=              0.0000  Tot=              0.0000
 Quadrupole moment (field-independent basis, Debye-Ang):
   XX=             -0.0000   YY=              0.0000   ZZ=              0.0000
   XY=             -0.0000   XZ=              0.0000   YZ=             -0.0000

 Normal termination of Gaussian 16 at Fri Oct 15 10:43:10 2021.
