 Gaussian 16, Revision A.03,
 Gaussian 16:  ES64L-G16RevA.03 25-Dec-2016

 --------------------------------------------------------
 #p PBE1PBE/Def2SVP td=(nstates=5) density=(transition=1)
 --------------------------------------------------------

 --------------------------------
 TDDFT excited states in gaussian
 --------------------------------
 Symbolic Z-matrix:
 Charge =  0 Multiplicity = 1

                         Standard orientation:
 ---------------------------------------------------------------------
 Center     Atomic      Atomic             Coordinates (Angstroms)
 Number     Number       Type             X           Y           Z
 ---------------------------------------------------------------------
      1         12           0      -28.281096   -0.224636   -0.532064
      2          6           0      -25.139530    1.101742    0.571426
      3          6           0      -27.327477   -3.280214    0.975626
      4          6           0      -31.453914   -1.269545   -0.850934
      5          6           0      -29.256551    2.989545   -1.326361
      6          7           0      -26.430451   -1.031924    0.644005
      7          6           0      -25.353643   -0.248424    0.951884
      8          6           0      -24.479102   -0.961303    1.971113
      9          6           0      -25.081159   -2.420670    1.818918
     10          6           0      -26.376347   -2.303829    1.109798
     11          6           0      -24.190474   -3.493185    1.106431
     12          6           0      -24.561912   -0.234713    3.351819
     13          6           0      -23.239618    0.039179    4.179649
     14          1           0      -23.066204   -0.594477    5.571689
     15          7           0      -29.207408   -2.002777   -0.211930
     16          6           0      -28.665807   -3.162708    0.402243
     17          6           0      -29.644892   -4.233842    0.417050
     18          6           0      -30.852724   -3.623714   -0.115348
     19          6           0      -30.510796   -2.247074   -0.420444
     20          6           0      -29.357342   -5.539083    1.033350
     21          6           0      -32.167856   -4.401195   -0.297848
     22          8           0      -32.181211   -5.588859    0.139351
     23          6           0      -33.448296   -3.853030   -0.962887
     24          7           0      -30.234138    0.742742   -0.771134
     25          6           0      -31.344785    0.085933   -1.045707
     26          6           0      -32.423596    1.078536   -1.336809
     27          6           0      -31.663302    2.416605   -1.538422
     28          6           0      -30.275523    2.062976   -1.099791
     29          6           0      -33.459898    0.803404   -2.508844
     30          6           0      -32.263957    3.680114   -0.731147
     31          6           0      -32.841391    4.867168   -1.540419
     32          7           0      -27.382956    1.604532   -0.608338
     33          6           0      -27.882730    2.805808   -0.944119
     34          6           0      -26.904442    3.825336   -0.837353
     35          6           0      -25.796568    3.177486   -0.286022
     36          6           0      -26.142454    1.812973   -0.116526
     37          6           0      -26.952479    5.256320   -1.195438
     38          6           0      -24.474709    3.457680    0.183283
     39          8           0      -23.910031    4.526341    0.251473
     40          6           0      -23.977282    2.021875    0.845047
     41          6           0      -22.758505    1.558056    0.171468
     42          8           0      -22.559962    1.577006   -1.049900
     43          8           0      -21.919737    1.082336    1.156698
     44          6           0      -20.625824    0.565296    0.714250
     45          1           0      -27.090644   -4.248846    1.418458
     46          1           0      -32.515742   -1.521880   -0.875382
     47          1           0      -29.437618    3.968830   -1.774736
     48          1           0      -23.481091   -1.009743    1.534779
     49          1           0      -25.312295   -2.594237    2.870551
     50          1           0      -24.763584   -3.882379    0.263683
     51          1           0      -23.939875   -4.351305    1.729681
     52          1           0      -23.271205   -3.118300    0.655386
     53          1           0      -25.190547   -0.946893    3.885881
     54          1           0      -25.108528    0.707994    3.362320
     55          1           0      -23.180167    1.125106    4.250311
     56          1           0      -22.388167   -0.167712    3.532035
     57          1           0      -28.994868   -5.328059    2.039697
     58          1           0      -28.529228   -6.020966    0.514036
     59          1           0      -30.136145   -6.301475    1.001574
     60          1           0      -33.894453   -3.126707   -0.283348
     61          1           0      -33.952938   -4.742943   -1.337604
     62          1           0      -33.057926   -3.337765   -1.841153
     63          1           0      -33.055179    1.117744   -0.450166
     64          1           0      -31.608170    2.477149   -2.625416
     65          1           0      -34.364934    1.323671   -2.194266
     66          1           0      -33.589466   -0.274112   -2.609001
     67          1           0      -33.045715    1.271499   -3.402009
     68          1           0      -31.430833    4.001713   -0.106402
     69          1           0      -32.980364    3.292347   -0.007043
     70          1           0      -32.457239    5.830863   -1.208691
     71          1           0      -33.927949    4.851041   -1.451352
     72          1           0      -32.685963    4.780926   -2.615990
     73          1           0      -25.954271    5.681461   -1.295103
     74          1           0      -27.478087    5.607915   -0.307432
     75          1           0      -27.722007    5.386161   -1.956298
     76          1           0      -23.919322    2.085602    1.931048
     77          1           0      -20.104291    1.276862    0.073709
     78          1           0      -20.766124   -0.384825    0.196698
     79          1           0      -19.998966    0.400786    1.590688
     80         12           0       28.136354    0.427737   -0.330347
     81          6           0       26.162355   -2.418679   -0.022691
     82          6           0       25.295449    2.327415    0.256304
     83          6           0       29.961565    3.169143   -0.050159
     84          6           0       30.960843   -1.571098   -0.404190
     85          7           0       26.025193    0.013692    0.228102
     86          6           0       25.413910   -1.221299    0.157223
     87          6           0       23.921825   -1.141033    0.289683
     88          6           0       23.656933    0.400864   -0.006423
     89          6           0       25.048540    0.982531    0.204171
     90          6           0       22.843416    0.891598   -1.296564
     91          6           0       23.324450   -1.704946    1.661235
     92          6           0       24.194858   -1.559402    2.944842
     93          1           0       23.420749   -1.159453    4.177886
     94          7           0       27.713934    2.463588    0.168046
     95          6           0       26.456149    3.048545    0.360454
     96          6           0       26.568194    4.440539    0.700214
     97          6           0       27.953733    4.723129    0.640985
     98          6           0       28.636754    3.447455    0.272077
     99          6           0       25.319720    5.321958    0.762255
    100          6           0       28.506324    6.143805    0.896821
    101          8           0       27.779354    7.074739    1.258260
    102          6           0       29.939966    6.334549    0.629574
    103          7           0       30.177766    0.678556   -0.122602
    104          6           0       30.682339    1.955328   -0.303544
    105          6           0       32.215510    1.976567   -0.489674
    106          6           0       32.482931    0.421468   -0.354256
    107          6           0       31.161632   -0.197979   -0.238230
    108          6           0       32.796969    2.564968   -1.736322
    109          6           0       33.362116    0.046106    0.943652
    110          6           0       34.460081   -0.923990    0.593125
    111          7           0       28.541048   -1.613829   -0.432774
    112          6           0       29.752225   -2.280093   -0.458165
    113          6           0       29.522504   -3.742922   -0.471317
    114          6           0       28.097722   -3.844334   -0.302453
    115          6           0       27.588163   -2.540771   -0.283166
    116          6           0       30.475391   -4.862620   -0.356711
    117          6           0       26.936324   -4.732828   -0.084508
    118          8           0       26.906695   -5.932319    0.066252
    119          6           0       25.651407   -3.855626    0.061576
    120          6           0       24.649237   -4.253841   -0.927661
    121          8           0       23.517077   -4.710814   -0.768275
    122          8           0       25.309434   -4.300376   -2.183524
    123          6           0       24.449841   -4.630794   -3.340345
    124          1           0       24.357963    2.884192    0.188449
    125          1           0       30.644275    4.012674   -0.170910
    126          1           0       31.905843   -2.107284   -0.507847
    127          1           0       23.442161   -1.761344   -0.467361
    128          1           0       23.058681    0.665662    0.865764
    129          1           0       22.402458    0.104077   -1.907428
    130          1           0       23.452605    1.432665   -2.020488
    131          1           0       21.946357    1.420828   -0.973984
    132          1           0       23.000946   -2.738418    1.541637
    133          1           0       22.383738   -1.176984    1.817313
    134          1           0       25.010509   -0.854892    2.779274
    135          1           0       24.659095   -2.515428    3.185341
    136          1           0       25.397693    6.146468    1.471624
    137          1           0       24.487353    4.734662    1.149119
    138          1           0       25.192266    5.723581   -0.243286
    139          1           0       30.100788    6.281702   -0.446789
    140          1           0       30.518679    5.589107    1.175920
    141          1           0       30.160655    7.339619    0.988948
    142          1           0       32.647028    2.390597    0.421927
    143          1           0       32.836542    0.159302   -1.351397
    144          1           0       33.848763    2.278438   -1.735688
    145          1           0       32.795983    3.647336   -1.607422
    146          1           0       32.233575    2.239488   -2.611627
    147          1           0       32.663723   -0.344918    1.683437
    148          1           0       33.786159    0.874356    1.512767
    149          1           0       34.218262   -1.881186    1.054455
    150          1           0       35.390672   -0.705160    1.117833
    151          1           0       34.468822   -1.098709   -0.482552
    152          1           0       31.528978   -4.586065   -0.295189
    153          1           0       30.371655   -5.435847   -1.277332
    154          1           0       30.214698   -5.237763    0.632735
    155          1           0       25.305870   -4.047742    1.077080
    156          1           0       24.769611   -3.891085   -4.075187
    157          1           0       23.363314   -4.586466   -3.265032
    158          1           0       24.869718   -5.558049   -3.730662
 ---------------------------------------------------------------------

 SCF Done:  E(RPBE1PBE) =  -4067.35963645     A.U. after   16 cycles

 Excitation energies and oscillator strengths:

 Excited State   1:      Singlet-A      1.8632 eV  665.42 nm  f=0.3659  <S**2>=0.000
     309 -> 316       -0.18028
     311 -> 313        0.69229
     311 <- 313       -0.10913
 This state for optimization and/or second-order correction.
 Total Energy, E(TD-HF/TD-DFT) =  -4067.29116359
 Copying the excited state density for this state as the 1-particle RhoCI density.

 Excited State   2:      Singlet-A      1.8711 eV  662.62 nm  f=0.3707  <S**2>=0.000
     310 -> 315       -0.17701
     312 -> 314        0.68973
     312 <- 314       -0.10396

 Excited State   3:      Singlet-A      1.9828 eV  625.30 nm  f=0.0000  <S**2>=0.000
     312 -> 313        0.70711

 Excited State   4:      Singlet-A      2.0525 eV  604.05 nm  f=0.0000  <S**2>=0.000
     311 -> 314        0.70711

 Excited State   5:      Singlet-A      2.2140 eV  560.00 nm  f=0.0901  <S**2>=0.000
     310 -> 314        0.64350
     312 -> 315        0.27376

 The electronic state is 1-A.
 Alpha  occ. eigenvalues --  -46.92492 -46.92282 -19.26848 -19.25012 -19.20756
 Alpha  occ. eigenvalues --  -19.20711 -19.19957 -19.19171 -19.19104 -19.18416
 Alpha  occ. eigenvalues --  -14.41748 -14.41679 -14.41380 -14.40958 -14.39594
 Alpha  occ. eigenvalues --  -14.39439 -14.39241 -14.38883 -10.37018 -10.36735
 Alpha  occ. eigenvalues --  -10.32573 -10.32468 -10.32348 -10.32169 -10.29609
 Alpha  occ. eigenvalues --  -10.29326 -10.28959 -10.28919 -10.28522 -10.28485
 Alpha  occ. eigenvalues --  -10.28271 -10.28262 -10.28248 -10.28106 -10.28038
 Alpha  occ. eigenvalues --  -10.28024 -10.27950 -10.27898 -10.27427 -10.26921
 Alpha  occ. eigenvalues --  -10.26748 -10.26714 -10.26469 -10.26464 -10.26341
 Alpha  occ. eigenvalues --  -10.26313 -10.26289 -10.26286 -10.26032 -10.25980
 Alpha  occ. eigenvalues --  -10.25918 -10.25873 -10.25786 -10.25731 -10.25594
 Alpha  occ. eigenvalues --  -10.25566 -10.25433 -10.25415 -10.25354 -10.25184
 Alpha  occ. eigenvalues --  -10.25091 -10.25065 -10.24947 -10.24903 -10.24894
 Alpha  occ. eigenvalues --  -10.24849 -10.24794 -10.24759 -10.24597 -10.24541
 Alpha  occ. eigenvalues --  -10.24420 -10.24358 -10.24290 -10.24149 -10.23998
 Alpha  occ. eigenvalues --  -10.23890 -10.23692 -10.23689 -10.23619 -10.23510
 Alpha  occ. eigenvalues --  -10.23340 -10.23270 -10.23215 -10.23207 -10.22520
 Alpha  occ. eigenvalues --  -10.22279  -3.14598  -3.14415  -1.87423  -1.87244
 Alpha  occ. eigenvalues --   -1.86988  -1.86813  -1.86777  -1.86656  -1.11232
 Alpha  occ. eigenvalues --   -1.09537  -1.05568  -1.05183  -1.04024  -1.02896
 Alpha  occ. eigenvalues --   -1.01977  -1.01721  -1.00106  -0.99685  -0.99396
 Alpha  occ. eigenvalues --   -0.98355  -0.98327  -0.97841  -0.97024  -0.96961
 Alpha  occ. eigenvalues --   -0.87475  -0.86821  -0.83953  -0.83663  -0.83516
 Alpha  occ. eigenvalues --   -0.82604  -0.82407  -0.82281  -0.82278  -0.81948
 Alpha  occ. eigenvalues --   -0.81809  -0.81246  -0.80431  -0.80334  -0.79035
 Alpha  occ. eigenvalues --   -0.78931  -0.78762  -0.78101  -0.76970  -0.76949
 Alpha  occ. eigenvalues --   -0.76575  -0.76203  -0.75689  -0.75190  -0.74783
 Alpha  occ. eigenvalues --   -0.74496  -0.72686  -0.72573  -0.71948  -0.71778
 Alpha  occ. eigenvalues --   -0.71184  -0.71092  -0.70570  -0.70507  -0.70093
 Alpha  occ. eigenvalues --   -0.69701  -0.67660  -0.67111  -0.66656  -0.66578
 Alpha  occ. eigenvalues --   -0.64158  -0.63833  -0.63745  -0.63662  -0.62840
 Alpha  occ. eigenvalues --   -0.62581  -0.61244  -0.61208  -0.60862  -0.60581
 Alpha  occ. eigenvalues --   -0.60142  -0.59643  -0.59367  -0.59283  -0.59073
 Alpha  occ. eigenvalues --   -0.58545  -0.57488  -0.57071  -0.54792  -0.54710
 Alpha  occ. eigenvalues --   -0.54547  -0.54045  -0.53978  -0.53540  -0.53462
 Alpha  occ. eigenvalues --   -0.52911  -0.52891  -0.52214  -0.52112  -0.51771
 Alpha  occ. eigenvalues --   -0.50889  -0.50766  -0.50413  -0.50359  -0.50147
 Alpha  occ. eigenvalues --   -0.49903  -0.49637  -0.49430  -0.49111  -0.49107
 Alpha  occ. eigenvalues --   -0.48377  -0.48308  -0.47960  -0.47605  -0.47552
 Alpha  occ. eigenvalues --   -0.47256  -0.47090  -0.47023  -0.46718  -0.46597
 Alpha  occ. eigenvalues --   -0.46489  -0.46310  -0.46256  -0.45919  -0.45867
 Alpha  occ. eigenvalues --   -0.45717  -0.45387  -0.45159  -0.45057  -0.44952
 Alpha  occ. eigenvalues --   -0.44783  -0.44571  -0.44513  -0.44296  -0.44217
 Alpha  occ. eigenvalues --   -0.44206  -0.44025  -0.43878  -0.43484  -0.43473
 Alpha  occ. eigenvalues --   -0.43183  -0.43148  -0.42939  -0.42787  -0.42552
 Alpha  occ. eigenvalues --   -0.42424  -0.42401  -0.42349  -0.42320  -0.42150
 Alpha  occ. eigenvalues --   -0.41895  -0.41745  -0.41643  -0.41365  -0.41242
 Alpha  occ. eigenvalues --   -0.41127  -0.40976  -0.40923  -0.40781  -0.40683
 Alpha  occ. eigenvalues --   -0.40460  -0.40365  -0.40146  -0.40046  -0.39886
 Alpha  occ. eigenvalues --   -0.39802  -0.39779  -0.39703  -0.39512  -0.39407
 Alpha  occ. eigenvalues --   -0.39305  -0.38731  -0.38562  -0.38426  -0.38345
 Alpha  occ. eigenvalues --   -0.38273  -0.38090  -0.37949  -0.37915  -0.37832
 Alpha  occ. eigenvalues --   -0.37758  -0.37684  -0.37639  -0.37326  -0.37219
 Alpha  occ. eigenvalues --   -0.36996  -0.36776  -0.36596  -0.36519  -0.36420
 Alpha  occ. eigenvalues --   -0.36119  -0.36092  -0.35909  -0.35693  -0.35328
 Alpha  occ. eigenvalues --   -0.35273  -0.35174  -0.34865  -0.34054  -0.33930
 Alpha  occ. eigenvalues --   -0.33738  -0.33514  -0.33215  -0.32960  -0.32635
 Alpha  occ. eigenvalues --   -0.32575  -0.32438  -0.31951  -0.31599  -0.31513
 Alpha  occ. eigenvalues --   -0.30856  -0.30561  -0.30302  -0.29913  -0.29707
 Alpha  occ. eigenvalues --   -0.29266  -0.28886  -0.28631  -0.26986  -0.26912
 Alpha  occ. eigenvalues --   -0.26108  -0.25885  -0.25747  -0.25707  -0.25529
 Alpha  occ. eigenvalues --   -0.25340  -0.25194  -0.24897  -0.21141  -0.21000
 Alpha  occ. eigenvalues --   -0.18939  -0.18866
 Alpha virt. eigenvalues --   -0.11345  -0.11160  -0.05711  -0.05215  -0.03921
 Alpha virt. eigenvalues --   -0.03530  -0.02035  -0.01955  -0.01111  -0.00545
 Alpha virt. eigenvalues --   -0.00502  -0.00183   0.00800   0.00902   0.01839

 Mulliken charges:
               1
     1  Mg  11.999551
     2  C    6.013514
     3  C    5.981861
     4  C    5.984525
     5  C    6.019957
     6  N    6.995830
     7  C    5.974012
     8  C    6.007236
     9  C    5.991523
    10  C    6.029761
    11  C    5.997798
    12  C    6.007248
    13  C    6.000594
    14  H    0.990307
    15  N    6.997135
    16  C    6.045649
    17  C    6.019668
    18  C    6.011615
    19  C    6.031450
    20  C    5.996128
    21  C    6.012916
    22  O    8.021895
    23  C    6.001847
    24  N    7.000148
    25  C    6.031359
    26  C    5.989647
    27  C    6.010709
    28  C    5.965578
    29  C    5.998517
    30  C    6.001519
    31  C    6.001112
    32  N    7.000358
    33  C    5.964994
    34  C    5.972063
    35  C    5.996007
    36  C    5.972287
    37  C    5.998742
    38  C    5.984172
    39  O    7.973548
    40  C    5.995974
    41  C    5.995112
    42  O    7.995547
    43  O    7.997464
    44  C    6.002257
    45  H    1.008126
    46  H    1.007253
    47  H    0.993566
    48  H    1.000341
    49  H    1.001907
    50  H    0.995101
    51  H    1.001417
    52  H    1.012188
    53  H    0.988154
    54  H    1.005124
    55  H    1.003464
    56  H    1.000062
    57  H    1.018895
    58  H    1.019483
    59  H    1.013188
    60  H    1.010435
    61  H    1.011473
    62  H    1.007499
    63  H    1.001050
    64  H    0.997871
    65  H    1.005277
    66  H    0.992625
    67  H    1.006816
    68  H    1.005764
    69  H    0.990955
    70  H    1.002155
    71  H    0.994374
    72  H    0.998781
    73  H    0.987397
    74  H    0.981439
    75  H    0.981525
    76  H    0.990592
    77  H    0.998159
    78  H    0.993568
    79  H    0.994842
    80  Mg  11.999962
    81  C    6.000524
    82  C    5.999762
    83  C    5.999268
    84  C    6.000185
    85  N    7.000176
    86  C    5.999161
    87  C    6.000268
    88  C    5.999731
    89  C    6.000751
    90  C    5.999884
    91  C    6.000045
    92  C    6.000104
    93  H    0.999837
    94  N    6.999886
    95  C    6.000921
    96  C    6.000401
    97  C    6.000353
    98  C    6.000931
    99  C    5.999936
   100  C    6.000337
   101  O    8.000481
   102  C    5.999894
   103  N    6.999931
   104  C    6.001006
   105  C    5.999613
   106  C    6.000271
   107  C    5.999200
   108  C    5.999933
   109  C    6.000106
   110  C    6.000012
   111  N    7.000042
   112  C    5.999192
   113  C    5.999287
   114  C    5.999884
   115  C    5.999340
   116  C    6.000074
   117  C    5.999577
   118  O    7.999321
   119  C    5.999953
   120  C    5.999826
   121  O    7.999777
   122  O    8.000142
   123  C    6.000049
   124  H    1.000329
   125  H    1.000140
   126  H    0.999703
   127  H    1.000015
   128  H    1.000140
   129  H    1.000339
   130  H    0.999999
   131  H    1.000109
   132  H    1.000096
   133  H    0.999831
   134  H    0.999821
   135  H    1.000150
   136  H    1.000381
   137  H    1.000366
   138  H    1.000439
   139  H    1.000220
   140  H    1.000233
   141  H    1.000303
   142  H    1.000031
   143  H    0.999966
   144  H    1.000194
   145  H    0.999877
   146  H    1.000108
   147  H    1.000004
   148  H    0.999693
   149  H    1.000079
   150  H    0.999851
   151  H    0.999983
   152  H    0.999550
   153  H    0.999559
   154  H    0.999607
   155  H    0.999837
   156  H    0.999888
   157  H    0.999859
   158  H    0.999964
 Sum of Mulliken charges = 624.00000

 Dipole moment (field-independent basis, Debye):
    X=             -5.2108    Y=             -8.7266    Z=              0.5157  Tot=             10.1770
 Quadrupole moment (field-independent basis, Debye-Ang):
   XX=            284.6932   YY=              5.0879   ZZ=             -1.2134
   XY=            262.3258   XZ=            -13.2733   YZ=              1.4006

 Normal termination of Gaussian 16 at Thu Oct 14 11:03:17 2021.
