 Gaussian 16, Revision A.03,
 Gaussian 16:  ES64L-G16RevA.03 25-Dec-2016

 --------------------------------------------------------
 #p PBE1PBE/Def2SVP td=(nstates=5) density=(transition=1)
 --------------------------------------------------------

 --------------------------------
 TDDFT excited states in gaussian
 --------------------------------
 Symbolic Z-matrix:
 Charge =  0 Multiplicity = 1

                         Standard orientation:
 ---------------------------------------------------------------------
 Center     Atomic      Atomic             Coordinates (Angstroms)
 Number     Number       Type             X           Y           Z
 ---------------------------------------------------------------------
      1         12           0      -25.023211   -0.640464   -0.387927
      2          6           0      -26.117734    2.052688    1.452334
      3          6           0      -23.758057    1.615694   -2.747529
      4          6           0      -23.998437   -3.225562   -2.301429
      5          6           0      -26.595429   -2.763170    1.742685
      6          7           0      -25.197888    1.609231   -0.723058
      7          6           0      -25.493551    2.498105    0.317974
      8          6           0      -25.021037    3.932037    0.006878
      9          6           0      -24.370827    3.722222   -1.410110
     10          6           0      -24.375921    2.231012   -1.669440
     11          6           0      -25.075004    4.503221   -2.512435
     12          6           0      -24.050837    4.661252    1.002377
     13          6           0      -24.639306    5.947146    1.801042
     14          1           0      -23.824257    7.208478    1.498992
     15          7           0      -24.130939   -0.801495   -2.271236
     16          6           0      -23.570344    0.248645   -3.016141
     17          6           0      -22.733246   -0.258893   -4.108227
     18          6           0      -22.832038   -1.753440   -4.076319
     19          6           0      -23.626931   -2.021684   -2.811949
     20          6           0      -21.988157    0.643034   -5.067358
     21          6           0      -22.287026   -2.775398   -4.958168
     22          8           0      -22.589372   -3.964854   -4.781944
     23          6           0      -21.402743   -2.455385   -6.150623
     24          7           0      -25.346111   -2.618214   -0.308399
     25          6           0      -24.711479   -3.560100   -1.139233
     26          6           0      -24.900122   -5.069650   -0.704812
     27          6           0      -25.794589   -4.841555    0.620491
     28          6           0      -25.901671   -3.301632    0.695456
     29          6           0      -25.612459   -5.998288   -1.807287
     30          6           0      -25.127202   -5.478964    1.887443
     31          6           0      -26.019111   -6.127904    2.899044
     32          7           0      -26.240130   -0.380231    1.236799
     33          6           0      -26.779905   -1.371368    2.061554
     34          6           0      -27.370738   -0.800273    3.223354
     35          6           0      -27.038445    0.596134    3.066439
     36          6           0      -26.431664    0.760585    1.814825
     37          6           0      -28.029793   -1.420310    4.383189
     38          6           0      -27.254572    1.890102    3.634091
     39          8           0      -27.761650    2.313412    4.678735
     40          6           0      -26.778247    2.911838    2.504424
     41          6           0      -27.952676    3.701513    2.048301
     42          8           0      -28.610580    3.545367    1.095996
     43          8           0      -28.137226    4.808559    2.873303
     44          6           0      -28.816203    5.927975    2.254401
     45          1           0      -23.289218    2.325123   -3.432667
     46          1           0      -23.666082   -4.143771   -2.790058
     47          1           0      -26.971507   -3.446067    2.507273
     48          1           0      -25.898198    4.565802   -0.119103
     49          1           0      -23.357747    4.123122   -1.452786
     50          1           0      -25.535510    3.796191   -3.201949
     51          1           0      -24.249833    5.020168   -3.000803
     52          1           0      -25.775686    5.268595   -2.179418
     53          1           0      -23.173752    4.979925    0.438556
     54          1           0      -23.725406    3.992018    1.798944
     55          1           0      -24.452044    5.673385    2.839504
     56          1           0      -25.690075    6.099372    1.555448
     57          1           0      -22.737703    1.079210   -5.728845
     58          1           0      -21.300310    0.025294   -5.642685
     59          1           0      -21.523241    1.502377   -4.583675
     60          1           0      -21.431039   -3.345493   -6.779454
     61          1           0      -20.381061   -2.185125   -5.881705
     62          1           0      -21.774217   -1.722391   -6.866470
     63          1           0      -23.948788   -5.476716   -0.363770
     64          1           0      -26.778496   -5.310608    0.597317
     65          1           0      -26.290316   -6.680802   -1.294237
     66          1           0      -24.974571   -6.700290   -2.342929
     67          1           0      -26.159005   -5.426674   -2.557649
     68          1           0      -24.463773   -4.802113    2.425561
     69          1           0      -24.484924   -6.323788    1.639483
     70          1           0      -25.941609   -5.490146    3.779444
     71          1           0      -25.740633   -7.078806    3.353296
     72          1           0      -27.044439   -6.146591    2.528201
     73          1           0      -27.628543   -2.426453    4.507817
     74          1           0      -29.075733   -1.490085    4.084699
     75          1           0      -27.986917   -0.724159    5.221041
     76          1           0      -26.033807    3.596355    2.910282
     77          1           0      -29.862457    5.624302    2.245655
     78          1           0      -28.427922    5.978874    1.237301
     79          1           0      -28.702294    6.840479    2.840302
     80         12           0       25.083801   -0.630142    0.521074
     81          6           0       25.928461    2.426683   -1.225563
     82          6           0       25.118229    1.150001    3.216865
     83          6           0       24.591918   -3.559352    1.949474
     84          6           0       25.891667   -2.548496   -2.458341
     85          7           0       25.370604    1.617140    0.902197
     86          6           0       25.707275    2.685747    0.097474
     87          6           0       25.844114    3.922076    0.910886
     88          6           0       26.060827    3.387103    2.349797
     89          6           0       25.529150    1.946153    2.165468
     90          6           0       27.534991    3.374591    2.810208
     91          6           0       24.513739    4.733597    0.861231
     92          6           0       24.648983    6.292898    0.661490
     93          1           0       23.417714    7.132345    0.134868
     94          7           0       24.827039   -1.112434    2.437180
     95          6           0       24.757029   -0.249340    3.415371
     96          6           0       24.401421   -0.965405    4.625939
     97          6           0       24.139551   -2.284951    4.187867
     98          6           0       24.549011   -2.356549    2.811470
     99          6           0       24.206949   -0.219553    5.958565
    100          6           0       23.603041   -3.412253    5.025336
    101          8           0       23.452563   -4.496955    4.547693
    102          6           0       23.166008   -3.135379    6.426845
    103          7           0       25.518543   -2.816842   -0.160146
    104          6           0       25.039619   -3.757321    0.651498
    105          6           0       24.926302   -5.072310   -0.023826
    106          6           0       25.554282   -4.738485   -1.414009
    107          6           0       25.692661   -3.239126   -1.391781
    108          6           0       25.514226   -6.330219    0.711197
    109          6           0       24.660045   -5.292911   -2.590805
    110          6           0       25.123027   -6.545485   -3.385880
    111          7           0       25.740270   -0.259593   -1.370733
    112          6           0       25.956786   -1.073399   -2.505144
    113          6           0       26.321484   -0.222859   -3.656938
    114          6           0       26.293578    1.084037   -3.188878
    115          6           0       25.996208    1.046757   -1.837108
    116          6           0       26.792043   -0.743181   -5.036766
    117          6           0       26.505100    2.496197   -3.642785
    118          8           0       26.755214    3.004570   -4.710101
    119          6           0       26.443937    3.425541   -2.329271
    120          6           0       25.685836    4.601679   -2.551514
    121          8           0       24.474312    4.660730   -2.298997
    122          8           0       26.357439    5.684395   -3.110688
    123          6           0       25.664642    7.007402   -3.182443
    124          1           0       25.052954    1.638607    4.190627
    125          1           0       24.366133   -4.524477    2.407532
    126          1           0       26.128371   -3.109216   -3.363892
    127          1           0       26.756776    4.449955    0.633078
    128          1           0       25.534311    3.910394    3.147712
    129          1           0       27.665095    4.003134    3.691679
    130          1           0       28.127751    3.763324    1.982706
    131          1           0       27.936328    2.383731    3.024722
    132          1           0       24.043749    4.551038    1.827781
    133          1           0       23.909116    4.263103    0.086147
    134          1           0       25.510535    6.467579    0.017610
    135          1           0       24.893009    6.630591    1.669424
    136          1           0       23.156713   -0.294002    6.243605
    137          1           0       24.540449    0.817414    5.978567
    138          1           0       24.692806   -0.764785    6.767235
    139          1           0       22.338622   -2.427798    6.473489
    140          1           0       23.883112   -2.631410    7.074730
    141          1           0       22.782341   -4.058709    6.861572
    142          1           0       23.865516   -5.273176   -0.173840
    143          1           0       26.579693   -5.107628   -1.442893
    144          1           0       25.820744   -5.988625    1.699317
    145          1           0       26.287608   -6.897733    0.192397
    146          1           0       24.719664   -7.069820    0.811429
    147          1           0       24.553546   -4.515776   -3.348145
    148          1           0       23.648174   -5.297821   -2.185614
    149          1           0       24.289516   -7.237773   -3.503489
    150          1           0       25.955713   -7.018600   -2.865124
    151          1           0       25.444785   -6.266159   -4.389867
    152          1           0       26.274488   -1.682456   -5.229666
    153          1           0       27.848549   -1.005567   -4.976851
    154          1           0       26.597825   -0.025413   -5.834090
    155          1           0       27.465290    3.702298   -2.069501
    156          1           0       25.437550    7.386035   -2.184864
    157          1           0       24.870717    7.003421   -3.928317
    158          1           0       26.423617    7.736446   -3.465981
 ---------------------------------------------------------------------

 SCF Done:  E(RPBE1PBE) =  -4067.33331565     A.U. after   16 cycles

 Excitation energies and oscillator strengths:

 Excited State   1:      Singlet-A      1.8151 eV  683.07 nm  f=0.3917  <S**2>=0.000
     309 -> 315        0.14959
     312 -> 313        0.69581
     312 <- 313       -0.11534
 This state for optimization and/or second-order correction.
 Total Energy, E(TD-HF/TD-DFT) =  -4067.26661197
 Copying the excited state density for this state as the 1-particle RhoCI density.

 Excited State   2:      Singlet-A      1.8807 eV  659.25 nm  f=0.3673  <S**2>=0.000
     310 -> 317       -0.15936
     311 -> 314        0.69581
     311 <- 314       -0.11003

 Excited State   3:      Singlet-A      1.9517 eV  635.28 nm  f=0.0000  <S**2>=0.000
     311 -> 313        0.70711

 Excited State   4:      Singlet-A      2.0056 eV  618.18 nm  f=0.0000  <S**2>=0.000
     312 -> 314        0.70711

 Excited State   5:      Singlet-A      2.1895 eV  566.27 nm  f=0.1152  <S**2>=0.000
     309 -> 313        0.65560
     312 -> 315       -0.22804

 The electronic state is 1-A.
 Alpha  occ. eigenvalues --  -46.92859 -46.91370 -19.24689 -19.22903 -19.20098
 Alpha  occ. eigenvalues --  -19.19813 -19.19256 -19.18895 -19.18819 -19.18458
 Alpha  occ. eigenvalues --  -14.42054 -14.41568 -14.41213 -14.39883 -14.39761
 Alpha  occ. eigenvalues --  -14.39710 -14.39257 -14.38378 -10.35544 -10.35166
 Alpha  occ. eigenvalues --  -10.33356 -10.32239 -10.32047 -10.31562 -10.29438
 Alpha  occ. eigenvalues --  -10.28914 -10.28849 -10.28646 -10.28555 -10.28532
 Alpha  occ. eigenvalues --  -10.28532 -10.28468 -10.28186 -10.28030 -10.27964
 Alpha  occ. eigenvalues --  -10.27950 -10.27900 -10.27847 -10.27543 -10.27488
 Alpha  occ. eigenvalues --  -10.27345 -10.27110 -10.27065 -10.26681 -10.26667
 Alpha  occ. eigenvalues --  -10.26500 -10.26171 -10.26117 -10.26069 -10.26012
 Alpha  occ. eigenvalues --  -10.25968 -10.25844 -10.25779 -10.25703 -10.25549
 Alpha  occ. eigenvalues --  -10.25435 -10.25382 -10.25362 -10.25142 -10.25087
 Alpha  occ. eigenvalues --  -10.24914 -10.24871 -10.24705 -10.24630 -10.24547
 Alpha  occ. eigenvalues --  -10.24459 -10.24418 -10.24207 -10.23955 -10.23950
 Alpha  occ. eigenvalues --  -10.23887 -10.23735 -10.23734 -10.23683 -10.23599
 Alpha  occ. eigenvalues --  -10.23580 -10.23498 -10.23435 -10.23363 -10.23328
 Alpha  occ. eigenvalues --  -10.23284 -10.23199 -10.23163 -10.23037 -10.22824
 Alpha  occ. eigenvalues --  -10.22534  -3.14963  -3.13703  -1.87789  -1.87343
 Alpha  occ. eigenvalues --   -1.87187  -1.86514  -1.86088  -1.85945  -1.11601
 Alpha  occ. eigenvalues --   -1.08984  -1.06728  -1.05839  -1.04087  -1.03075
 Alpha  occ. eigenvalues --   -1.02650  -1.00927  -1.00520  -0.99641  -0.99507
 Alpha  occ. eigenvalues --   -0.99504  -0.98088  -0.96626  -0.95952  -0.95107
 Alpha  occ. eigenvalues --   -0.87097  -0.85732  -0.83569  -0.83473  -0.83270
 Alpha  occ. eigenvalues --   -0.82921  -0.82761  -0.82322  -0.81997  -0.81807
 Alpha  occ. eigenvalues --   -0.81776  -0.81578  -0.80801  -0.79756  -0.78685
 Alpha  occ. eigenvalues --   -0.78476  -0.77835  -0.77417  -0.76673  -0.76352
 Alpha  occ. eigenvalues --   -0.76082  -0.75954  -0.75345  -0.75251  -0.74744
 Alpha  occ. eigenvalues --   -0.74615  -0.72962  -0.72961  -0.71756  -0.71481
 Alpha  occ. eigenvalues --   -0.71098  -0.71021  -0.70538  -0.69766  -0.69631
 Alpha  occ. eigenvalues --   -0.69590  -0.67578  -0.67392  -0.66122  -0.65561
 Alpha  occ. eigenvalues --   -0.63628  -0.63544  -0.63242  -0.63134  -0.62434
 Alpha  occ. eigenvalues --   -0.62428  -0.61951  -0.61715  -0.60509  -0.60132
 Alpha  occ. eigenvalues --   -0.60099  -0.59811  -0.59630  -0.59461  -0.58851
 Alpha  occ. eigenvalues --   -0.58521  -0.55912  -0.55668  -0.55493  -0.54714
 Alpha  occ. eigenvalues --   -0.54635  -0.54006  -0.53686  -0.53623  -0.53163
 Alpha  occ. eigenvalues --   -0.52891  -0.52591  -0.52235  -0.52228  -0.51823
 Alpha  occ. eigenvalues --   -0.51083  -0.51058  -0.50357  -0.50149  -0.50109
 Alpha  occ. eigenvalues --   -0.49794  -0.48591  -0.48530  -0.48467  -0.48321
 Alpha  occ. eigenvalues --   -0.47967  -0.47777  -0.47584  -0.47392  -0.47326
 Alpha  occ. eigenvalues --   -0.47133  -0.47031  -0.46812  -0.46684  -0.46420
 Alpha  occ. eigenvalues --   -0.46383  -0.46220  -0.45999  -0.45990  -0.45838
 Alpha  occ. eigenvalues --   -0.45402  -0.45164  -0.44986  -0.44950  -0.44791
 Alpha  occ. eigenvalues --   -0.44656  -0.44487  -0.44477  -0.44413  -0.44317
 Alpha  occ. eigenvalues --   -0.44140  -0.44061  -0.43881  -0.43567  -0.43487
 Alpha  occ. eigenvalues --   -0.43411  -0.43280  -0.43262  -0.43026  -0.42779
 Alpha  occ. eigenvalues --   -0.42684  -0.42518  -0.42399  -0.42257  -0.42141
 Alpha  occ. eigenvalues --   -0.41939  -0.41664  -0.41556  -0.41180  -0.41163
 Alpha  occ. eigenvalues --   -0.40975  -0.40973  -0.40814  -0.40625  -0.40405
 Alpha  occ. eigenvalues --   -0.40258  -0.40163  -0.40073  -0.39812  -0.39701
 Alpha  occ. eigenvalues --   -0.39647  -0.39463  -0.39419  -0.39104  -0.39064
 Alpha  occ. eigenvalues --   -0.38824  -0.38444  -0.38359  -0.38290  -0.38206
 Alpha  occ. eigenvalues --   -0.38162  -0.37973  -0.37811  -0.37777  -0.37690
 Alpha  occ. eigenvalues --   -0.37345  -0.37253  -0.37183  -0.36822  -0.36761
 Alpha  occ. eigenvalues --   -0.36583  -0.36299  -0.36258  -0.36062  -0.35941
 Alpha  occ. eigenvalues --   -0.35930  -0.35536  -0.35455  -0.35327  -0.35134
 Alpha  occ. eigenvalues --   -0.35104  -0.34871  -0.34851  -0.34799  -0.34020
 Alpha  occ. eigenvalues --   -0.33715  -0.33321  -0.32810  -0.32717  -0.32685
 Alpha  occ. eigenvalues --   -0.32165  -0.32088  -0.31574  -0.31211  -0.31183
 Alpha  occ. eigenvalues --   -0.30720  -0.29850  -0.29682  -0.29194  -0.28825
 Alpha  occ. eigenvalues --   -0.28625  -0.28378  -0.27736  -0.27272  -0.27106
 Alpha  occ. eigenvalues --   -0.26603  -0.26167  -0.26069  -0.26047  -0.25540
 Alpha  occ. eigenvalues --   -0.25527  -0.25264  -0.24824  -0.21302  -0.20557
 Alpha  occ. eigenvalues --   -0.19150  -0.19089
 Alpha virt. eigenvalues --   -0.11716  -0.11457  -0.05802  -0.04271  -0.04056
 Alpha virt. eigenvalues --   -0.03351  -0.02204  -0.01831  -0.00563  -0.00505
 Alpha virt. eigenvalues --   -0.00083   0.00804   0.01003   0.01192   0.01675

 Mulliken charges:
               1
     1  Mg  12.002310
     2  C    5.990343
     3  C    6.010589
     4  C    6.015046
     5  C    5.993209
     6  N    6.994954
     7  C    6.024572
     8  C    5.988119
     9  C    6.008418
    10  C    5.975021
    11  C    6.001037
    12  C    5.998936
    13  C    5.996251
    14  H    1.008432
    15  N    7.000612
    16  C    5.966124
    17  C    5.971353
    18  C    5.987531
    19  C    5.972031
    20  C    6.001986
    21  C    5.988801
    22  O    7.970028
    23  C    6.006332
    24  N    7.001380
    25  C    5.967461
    26  C    6.013273
    27  C    5.987752
    28  C    6.030843
    29  C    6.002638
    30  C    5.994468
    31  C    6.000359
    32  N    7.000574
    33  C    6.034971
    34  C    6.027110
    35  C    6.004828
    36  C    6.024728
    37  C    5.999929
    38  C    6.016107
    39  O    8.032347
    40  C    5.999635
    41  C    6.000838
    42  O    8.008009
    43  O    7.999681
    44  C    5.997994
    45  H    0.991819
    46  H    0.993444
    47  H    1.009550
    48  H    1.002617
    49  H    1.000163
    50  H    1.002887
    51  H    1.000064
    52  H    0.987651
    53  H    1.009047
    54  H    0.997415
    55  H    0.997114
    56  H    0.997966
    57  H    0.980395
    58  H    0.986083
    59  H    0.980711
    60  H    0.986566
    61  H    0.990032
    62  H    0.992267
    63  H    0.997517
    64  H    1.003311
    65  H    0.989599
    66  H    1.001727
    67  H    1.001510
    68  H    1.000632
    69  H    1.011134
    70  H    0.995144
    71  H    1.004951
    72  H    1.000108
    73  H    1.017366
    74  H    1.017871
    75  H    1.012677
    76  H    1.010977
    77  H    1.002126
    78  H    1.006045
    79  H    1.004557
    80  Mg  12.000025
    81  C    6.000001
    82  C    5.999959
    83  C    6.000014
    84  C    6.000038
    85  N    6.999967
    86  C    6.000033
    87  C    5.999990
    88  C    6.000013
    89  C    5.999977
    90  C    6.000021
    91  C    5.999994
    92  C    5.999995
    93  H    1.000025
    94  N    7.000030
    95  C    5.999944
    96  C    5.999939
    97  C    5.999972
    98  C    5.999944
    99  C    6.000000
   100  C    5.999970
   101  O    7.999939
   102  C    6.000018
   103  N    7.000001
   104  C    5.999947
   105  C    6.000032
   106  C    5.999978
   107  C    6.000010
   108  C    5.999997
   109  C    5.999987
   110  C    5.999996
   111  N    6.999998
   112  C    6.000058
   113  C    6.000094
   114  C    6.000006
   115  C    6.000055
   116  C    6.000009
   117  C    6.000026
   118  O    8.000099
   119  C    5.999992
   120  C    6.000012
   121  O    8.000033
   122  O    7.999995
   123  C    5.999995
   124  H    0.999951
   125  H    0.999992
   126  H    1.000035
   127  H    0.999979
   128  H    0.999984
   129  H    0.999969
   130  H    0.999955
   131  H    0.999992
   132  H    1.000033
   133  H    1.000012
   134  H    0.999984
   135  H    0.999990
   136  H    0.999959
   137  H    0.999948
   138  H    0.999933
   139  H    0.999990
   140  H    0.999962
   141  H    0.999955
   142  H    1.000020
   143  H    0.999993
   144  H    0.999995
   145  H    0.999975
   146  H    1.000011
   147  H    1.000002
   148  H    1.000043
   149  H    1.000039
   150  H    0.999988
   151  H    1.000004
   152  H    1.000059
   153  H    1.000037
   154  H    1.000056
   155  H    1.000000
   156  H    1.000003
   157  H    1.000030
   158  H    0.999996
 Sum of Mulliken charges = 624.00000

 Dipole moment (field-independent basis, Debye):
    X=             -5.4832    Y=              1.3556    Z=              9.0505  Tot=             10.6684
 Quadrupole moment (field-independent basis, Debye-Ang):
   XX=            274.9261   YY=              1.4474   ZZ=             -9.9625
   XY=            -31.2202   XZ=           -224.5521   YZ=             -5.1500

 Normal termination of Gaussian 16 at Fri Oct 15 13:47:16 2021.
