 Gaussian 16, Revision A.03,
 Gaussian 16:  ES64L-G16RevA.03 25-Dec-2016

 --------------------------------------------------------
 #p PBE1PBE/Def2SVP td=(nstates=5) density=(transition=1)
 --------------------------------------------------------

 --------------------------------
 TDDFT excited states in gaussian
 --------------------------------
 Symbolic Z-matrix:
 Charge =  0 Multiplicity = 1

                         Standard orientation:
 ---------------------------------------------------------------------
 Center     Atomic      Atomic             Coordinates (Angstroms)
 Number     Number       Type             X           Y           Z
 ---------------------------------------------------------------------
      1         12           0        9.790694   -0.189693    0.574273
      2          6           0        8.719810    1.496536   -2.354305
      3          6           0        6.726850    0.424219    1.902275
      4          6           0       10.533928   -2.477301    2.977153
      5          6           0       12.638961   -1.155617   -1.148256
      6          7           0        7.932146    0.735496   -0.318134
      7          6           0        7.713918    1.450387   -1.465910
      8          6           0        6.366442    2.070681   -1.488081
      9          6           0        5.899005    1.978018    0.040185
     10          6           0        6.877819    0.991268    0.578753
     11          6           0        5.938796    3.332930    0.728383
     12          6           0        5.531087    1.310378   -2.530071
     13          6           0        4.834530    2.160113   -3.674918
     14          1           0        3.300287    2.068170   -3.932500
     15          7           0        8.841654   -0.928566    2.248770
     16          6           0        7.588902   -0.459796    2.668156
     17          6           0        7.339436   -0.994763    3.972965
     18          6           0        8.411919   -1.881627    4.326339
     19          6           0        9.361986   -1.729952    3.191918
     20          6           0        6.098484   -0.589907    4.758156
     21          6           0        8.573436   -2.731804    5.566649
     22          8           0        7.676715   -2.529743    6.435867
     23          6           0        9.606621   -3.859931    5.845345
     24          7           0       11.385797   -1.640646    0.903523
     25          6           0       11.477095   -2.440282    1.988953
     26          6           0       12.710908   -3.380575    1.953313
     27          6           0       13.446247   -2.865434    0.668175
     28          6           0       12.376602   -1.838116    0.065372
     29          6           0       13.509890   -3.223483    3.234676
     30          6           0       13.796433   -3.919121   -0.337749
     31          6           0       15.275190   -4.158778   -0.478353
     32          7           0       10.653339    0.193334   -1.220449
     33          6           0       11.852543   -0.204047   -1.825234
     34          6           0       12.109335    0.502636   -2.974464
     35          6           0       10.917996    1.218759   -3.210047
     36          6           0       10.045077    0.934731   -2.162303
     37          6           0       13.459988    0.532755   -3.657969
     38          6           0       10.293097    2.224837   -4.109407
     39          8           0       10.746538    2.761523   -5.072133
     40          6           0        8.818292    2.320022   -3.563363
     41          6           0        8.420733    3.778933   -3.619627
     42          8           0        7.671965    4.268132   -4.465486
     43          8           0        8.989637    4.486212   -2.532725
     44          6           0        8.533557    5.874521   -2.470886
     45          1           0        5.843197    0.797082    2.424857
     46          1           0       10.860841   -3.148512    3.774807
     47          1           0       13.382485   -1.580520   -1.824870
     48          1           0        6.451799    3.111581   -1.800332
     49          1           0        4.869863    1.620347    0.058301
     50          1           0        6.781677    3.948562    0.417308
     51          1           0        6.099764    3.169563    1.794504
     52          1           0        5.007920    3.894310    0.648563
     53          1           0        4.760045    0.766569   -1.984490
     54          1           0        6.063515    0.486920   -3.006036
     55          1           0        5.352729    1.757375   -4.545576
     56          1           0        5.189488    3.189924   -3.660520
     57          1           0        5.198031   -0.703735    4.154539
     58          1           0        6.218659    0.469213    4.985702
     59          1           0        5.846375   -1.178706    5.641187
     60          1           0       10.545559   -3.315935    5.943053
     61          1           0        9.627975   -4.530184    4.985962
     62          1           0        9.357136   -4.447558    6.729235
     63          1           0       12.461744   -4.438435    1.873869
     64          1           0       14.287680   -2.233307    0.950747
     65          1           0       12.818517   -3.333844    4.070266
     66          1           0       13.944278   -2.223294    3.242342
     67          1           0       14.398322   -3.834481    3.389726
     68          1           0       13.473858   -3.680636   -1.351246
     69          1           0       13.355987   -4.904863   -0.189311
     70          1           0       15.456623   -5.222407   -0.328829
     71          1           0       15.858729   -3.668589    0.300941
     72          1           0       15.698876   -3.802722   -1.418008
     73          1           0       13.446694    1.407665   -4.308735
     74          1           0       13.642500   -0.361328   -4.253652
     75          1           0       14.179482    0.607797   -2.842923
     76          1           0        8.249757    1.875556   -4.381077
     77          1           0        8.572934    6.244149   -1.446139
     78          1           0        7.471231    5.954391   -2.697107
     79          1           0        9.074449    6.533131   -3.150978
     80         12           0       -9.904533   -0.731665   -0.036804
     81          6           0       -8.453718    2.136330    1.358614
     82          6           0       -6.736430   -1.546940   -1.391220
     83          6           0      -11.346554   -3.325387   -1.686853
     84          6           0      -13.017079    0.562228    0.710807
     85          7           0       -7.865264    0.116822    0.145870
     86          6           0       -7.525249    1.215956    0.939778
     87          6           0       -5.973207    1.213551    1.184374
     88          6           0       -5.488503    0.110730    0.236122
     89          6           0       -6.786095   -0.464067   -0.431946
     90          6           0       -4.507726    0.694244   -0.816409
     91          6           0       -5.715254    0.989541    2.669392
     92          6           0       -4.440540    1.561824    3.267544
     93          1           0       -3.336818    2.053229    2.303847
     94          7           0       -9.190619   -2.255161   -1.349332
     95          6           0       -7.865793   -2.395897   -1.804415
     96          6           0       -7.756898   -3.517388   -2.720822
     97          6           0       -9.066039   -4.136125   -2.804167
     98          6           0       -9.935199   -3.224466   -1.943088
     99          6           0       -6.434324   -4.035998   -3.299684
    100          6           0       -9.534096   -5.374541   -3.544088
    101          8           0      -10.699709   -5.738600   -3.463395
    102          6           0       -8.520776   -6.244531   -4.182885
    103          7           0      -11.930156   -1.314236   -0.358686
    104          6           0      -12.250746   -2.475601   -0.994189
    105          6           0      -13.773130   -2.741639   -0.861526
    106          6           0      -14.323620   -1.520191   -0.027872
    107          6           0      -13.017317   -0.729381    0.241655
    108          6           0      -14.414763   -2.886299   -2.253107
    109          6           0      -14.997380   -1.897805    1.318073
    110          6           0      -16.512944   -1.845123    1.151928
    111          7           0      -10.694674    1.036172    0.755709
    112          6           0      -11.958368    1.485519    0.948440
    113          6           0      -11.864641    2.909321    1.353126
    114          6           0      -10.554796    3.174825    1.626558
    115          6           0       -9.878274    2.004320    1.197796
    116          6           0      -13.107622    3.748614    1.596682
    117          6           0       -9.584694    4.144915    2.151698
    118          8           0       -9.773531    5.283777    2.561789
    119          6           0       -8.238221    3.452544    2.065628
    120          6           0       -7.347925    4.407629    1.387166
    121          8           0       -7.248720    4.695809    0.186814
    122          8           0       -6.615545    5.053409    2.362174
    123          6           0       -5.715596    6.095060    1.916997
    124          1           0       -5.729566   -1.808395   -1.722687
    125          1           0      -11.710461   -4.239824   -2.160034
    126          1           0      -14.035022    0.938827    0.831521
    127          1           0       -5.719969    2.216102    0.837493
    128          1           0       -4.860821   -0.544467    0.840057
    129          1           0       -4.889819    0.718059   -1.837108
    130          1           0       -3.725299   -0.053262   -0.944235
    131          1           0       -4.193121    1.707977   -0.569239
    132          1           0       -5.799336   -0.090527    2.793523
    133          1           0       -6.569729    1.361212    3.233703
    134          1           0       -4.024514    0.831715    3.960465
    135          1           0       -4.839847    2.384153    3.862242
    136          1           0       -5.578621   -3.392858   -3.093276
    137          1           0       -6.516327   -4.131442   -4.383221
    138          1           0       -6.282706   -5.058146   -2.954816
    139          1           0       -7.890772   -6.672892   -3.402933
    140          1           0       -8.037840   -5.736920   -5.017838
    141          1           0       -8.972882   -7.126137   -4.637383
    142          1           0      -13.895035   -3.703397   -0.363795
    143          1           0      -14.949514   -0.961847   -0.725237
    144          1           0      -15.231367   -2.204029   -2.487472
    145          1           0      -14.835427   -3.885598   -2.143164
    146          1           0      -13.732447   -2.723652   -3.086956
    147          1           0      -14.862442   -1.096437    2.044722
    148          1           0      -14.701417   -2.875437    1.698995
    149          1           0      -16.851951   -2.777727    1.602695
    150          1           0      -16.854566   -1.946206    0.122079
    151          1           0      -17.006326   -0.991634    1.617770
    152          1           0      -14.040922    3.315405    1.236051
    153          1           0      -13.027955    4.748695    1.172309
    154          1           0      -13.298206    3.768139    2.670293
    155          1           0       -7.911701    3.238394    3.082767
    156          1           0       -6.285360    6.771010    1.278861
    157          1           0       -4.861919    5.720999    1.351403
    158          1           0       -5.595660    6.741550    2.785683
 ---------------------------------------------------------------------

 SCF Done:  E(RPBE1PBE) =  -4067.37123151     A.U. after   16 cycles

 Excitation energies and oscillator strengths:

 Excited State   1:      Singlet-A      1.6450 eV  753.69 nm  f=0.0000  <S**2>=0.000
     312 -> 313        0.70708
 This state for optimization and/or second-order correction.
 Total Energy, E(TD-HF/TD-DFT) =  -4067.31077812
 Copying the excited state density for this state as the 1-particle RhoCI density.

 Excited State   2:      Singlet-A      1.8265 eV  678.80 nm  f=0.3777  <S**2>=0.000
     310 -> 316       -0.16182
     312 -> 314        0.69457
     312 <- 314       -0.11145

 Excited State   3:      Singlet-A      1.8484 eV  670.77 nm  f=0.3464  <S**2>=0.000
     309 -> 315        0.16641
     311 -> 313        0.69422
     311 <- 313       -0.11256

 Excited State   4:      Singlet-A      2.0666 eV  599.95 nm  f=0.0000  <S**2>=0.000
     311 -> 314        0.70709

 Excited State   5:      Singlet-A      2.2288 eV  556.28 nm  f=0.0000  <S**2>=0.000
     310 -> 313        0.70708

 The electronic state is 1-A.
 Alpha  occ. eigenvalues --  -46.92527 -46.92522 -19.26377 -19.25193 -19.21355
 Alpha  occ. eigenvalues --  -19.20200 -19.20099 -19.19653 -19.19223 -19.18639
 Alpha  occ. eigenvalues --  -14.42043 -14.41796 -14.41725 -14.41265 -14.39822
 Alpha  occ. eigenvalues --  -14.39694 -14.38940 -14.38840 -10.37511 -10.36443
 Alpha  occ. eigenvalues --  -10.32953 -10.32780 -10.32677 -10.32398 -10.29801
 Alpha  occ. eigenvalues --  -10.29590 -10.29021 -10.28978 -10.28837 -10.28649
 Alpha  occ. eigenvalues --  -10.28644 -10.28561 -10.28528 -10.28417 -10.28399
 Alpha  occ. eigenvalues --  -10.28395 -10.28267 -10.28011 -10.27359 -10.26971
 Alpha  occ. eigenvalues --  -10.26904 -10.26763 -10.26609 -10.26510 -10.26457
 Alpha  occ. eigenvalues --  -10.26301 -10.26290 -10.26258 -10.26153 -10.26135
 Alpha  occ. eigenvalues --  -10.26102 -10.26070 -10.25921 -10.25811 -10.25697
 Alpha  occ. eigenvalues --  -10.25584 -10.25552 -10.25551 -10.25538 -10.25506
 Alpha  occ. eigenvalues --  -10.25413 -10.25367 -10.25251 -10.25150 -10.24869
 Alpha  occ. eigenvalues --  -10.24784 -10.24762 -10.24758 -10.24461 -10.24427
 Alpha  occ. eigenvalues --  -10.24225 -10.24176 -10.24057 -10.23976 -10.23865
 Alpha  occ. eigenvalues --  -10.23865 -10.23666 -10.23610 -10.23071 -10.23010
 Alpha  occ. eigenvalues --  -10.23007 -10.22941 -10.22737 -10.22710 -10.22688
 Alpha  occ. eigenvalues --  -10.22474  -3.14669  -3.14503  -1.87490  -1.87357
 Alpha  occ. eigenvalues --   -1.87049  -1.86898  -1.86835  -1.86757  -1.10628
 Alpha  occ. eigenvalues --   -1.10434  -1.06956  -1.04997  -1.04872  -1.02892
 Alpha  occ. eigenvalues --   -1.02432  -1.01746  -0.99992  -0.99167  -0.99064
 Alpha  occ. eigenvalues --   -0.98111  -0.97522  -0.97401  -0.97220  -0.96183
 Alpha  occ. eigenvalues --   -0.87838  -0.87805  -0.84302  -0.83750  -0.83553
 Alpha  occ. eigenvalues --   -0.83489  -0.83080  -0.82311  -0.82212  -0.81527
 Alpha  occ. eigenvalues --   -0.81467  -0.81066  -0.80358  -0.79966  -0.79217
 Alpha  occ. eigenvalues --   -0.78724  -0.78607  -0.78153  -0.77052  -0.77052
 Alpha  occ. eigenvalues --   -0.76434  -0.76219  -0.75275  -0.75132  -0.74934
 Alpha  occ. eigenvalues --   -0.74392  -0.72260  -0.72258  -0.71853  -0.71631
 Alpha  occ. eigenvalues --   -0.71311  -0.71149  -0.70905  -0.70313  -0.69985
 Alpha  occ. eigenvalues --   -0.68913  -0.68104  -0.67027  -0.66789  -0.65466
 Alpha  occ. eigenvalues --   -0.63897  -0.63494  -0.63483  -0.62891  -0.62367
 Alpha  occ. eigenvalues --   -0.62245  -0.61802  -0.61441  -0.60803  -0.60277
 Alpha  occ. eigenvalues --   -0.60056  -0.59805  -0.59614  -0.59339  -0.59185
 Alpha  occ. eigenvalues --   -0.58481  -0.57784  -0.56776  -0.55191  -0.54750
 Alpha  occ. eigenvalues --   -0.54572  -0.54329  -0.54256  -0.53757  -0.53600
 Alpha  occ. eigenvalues --   -0.53352  -0.53017  -0.52831  -0.52266  -0.51487
 Alpha  occ. eigenvalues --   -0.50950  -0.50540  -0.50446  -0.50326  -0.50320
 Alpha  occ. eigenvalues --   -0.49670  -0.49533  -0.49330  -0.49092  -0.48558
 Alpha  occ. eigenvalues --   -0.48335  -0.48183  -0.48034  -0.47917  -0.47901
 Alpha  occ. eigenvalues --   -0.47729  -0.47539  -0.47502  -0.47466  -0.46946
 Alpha  occ. eigenvalues --   -0.46631  -0.46556  -0.46379  -0.46322  -0.46033
 Alpha  occ. eigenvalues --   -0.45844  -0.45644  -0.45426  -0.45256  -0.44954
 Alpha  occ. eigenvalues --   -0.44828  -0.44784  -0.44609  -0.44393  -0.44344
 Alpha  occ. eigenvalues --   -0.44151  -0.44019  -0.43793  -0.43697  -0.43674
 Alpha  occ. eigenvalues --   -0.43398  -0.43290  -0.43119  -0.42876  -0.42768
 Alpha  occ. eigenvalues --   -0.42531  -0.42513  -0.42085  -0.42003  -0.41742
 Alpha  occ. eigenvalues --   -0.41710  -0.41476  -0.41438  -0.41287  -0.41081
 Alpha  occ. eigenvalues --   -0.40938  -0.40831  -0.40771  -0.40595  -0.40588
 Alpha  occ. eigenvalues --   -0.40317  -0.40195  -0.40059  -0.40000  -0.39801
 Alpha  occ. eigenvalues --   -0.39721  -0.39493  -0.39246  -0.39166  -0.39053
 Alpha  occ. eigenvalues --   -0.39045  -0.38799  -0.38594  -0.38420  -0.38250
 Alpha  occ. eigenvalues --   -0.38186  -0.37973  -0.37822  -0.37689  -0.37687
 Alpha  occ. eigenvalues --   -0.37429  -0.37382  -0.37352  -0.37306  -0.37275
 Alpha  occ. eigenvalues --   -0.37009  -0.36749  -0.36681  -0.36518  -0.36398
 Alpha  occ. eigenvalues --   -0.36330  -0.36169  -0.36135  -0.35883  -0.35257
 Alpha  occ. eigenvalues --   -0.35163  -0.34857  -0.34168  -0.33906  -0.33873
 Alpha  occ. eigenvalues --   -0.33469  -0.33316  -0.32989  -0.32970  -0.32891
 Alpha  occ. eigenvalues --   -0.32792  -0.32505  -0.32289  -0.31579  -0.31576
 Alpha  occ. eigenvalues --   -0.31296  -0.30915  -0.30402  -0.29963  -0.29393
 Alpha  occ. eigenvalues --   -0.29112  -0.28967  -0.28256  -0.27537  -0.26930
 Alpha  occ. eigenvalues --   -0.26450  -0.26264  -0.26144  -0.25940  -0.25787
 Alpha  occ. eigenvalues --   -0.25599  -0.25542  -0.25219  -0.21493  -0.20732
 Alpha  occ. eigenvalues --   -0.19390  -0.18578
 Alpha virt. eigenvalues --   -0.11858  -0.11118  -0.05482  -0.05052  -0.04099
 Alpha virt. eigenvalues --   -0.04044  -0.02440  -0.02224  -0.01056  -0.00567
 Alpha virt. eigenvalues --   -0.00437   0.00546   0.00594   0.01017   0.01263

 Mulliken charges:
               1
     1  Mg  12.000000
     2  C    6.000000
     3  C    6.000000
     4  C    6.000000
     5  C    6.000000
     6  N    7.000000
     7  C    6.000000
     8  C    6.000000
     9  C    6.000000
    10  C    6.000000
    11  C    6.000000
    12  C    6.000000
    13  C    6.000000
    14  H    1.000000
    15  N    7.000000
    16  C    6.000000
    17  C    6.000000
    18  C    6.000000
    19  C    6.000000
    20  C    6.000000
    21  C    6.000000
    22  O    8.000000
    23  C    6.000000
    24  N    7.000000
    25  C    6.000000
    26  C    6.000000
    27  C    6.000000
    28  C    6.000000
    29  C    6.000000
    30  C    6.000000
    31  C    6.000000
    32  N    7.000000
    33  C    6.000000
    34  C    6.000000
    35  C    6.000000
    36  C    6.000000
    37  C    6.000000
    38  C    6.000000
    39  O    8.000000
    40  C    6.000000
    41  C    6.000000
    42  O    8.000000
    43  O    8.000000
    44  C    6.000000
    45  H    1.000000
    46  H    1.000000
    47  H    1.000000
    48  H    1.000000
    49  H    1.000000
    50  H    1.000000
    51  H    1.000000
    52  H    1.000000
    53  H    1.000000
    54  H    1.000000
    55  H    1.000000
    56  H    1.000000
    57  H    1.000000
    58  H    1.000000
    59  H    1.000000
    60  H    1.000000
    61  H    1.000000
    62  H    1.000000
    63  H    1.000000
    64  H    1.000000
    65  H    1.000000
    66  H    1.000000
    67  H    1.000000
    68  H    1.000000
    69  H    1.000000
    70  H    1.000000
    71  H    1.000000
    72  H    1.000000
    73  H    1.000000
    74  H    1.000000
    75  H    1.000000
    76  H    1.000000
    77  H    1.000000
    78  H    1.000000
    79  H    1.000000
    80  Mg  12.000000
    81  C    6.000000
    82  C    6.000000
    83  C    6.000000
    84  C    6.000000
    85  N    7.000000
    86  C    6.000000
    87  C    6.000000
    88  C    6.000000
    89  C    6.000000
    90  C    6.000000
    91  C    6.000000
    92  C    6.000000
    93  H    1.000000
    94  N    7.000000
    95  C    6.000000
    96  C    6.000000
    97  C    6.000000
    98  C    6.000000
    99  C    6.000000
   100  C    6.000000
   101  O    8.000000
   102  C    6.000000
   103  N    7.000000
   104  C    6.000000
   105  C    6.000000
   106  C    6.000000
   107  C    6.000000
   108  C    6.000000
   109  C    6.000000
   110  C    6.000000
   111  N    7.000000
   112  C    6.000000
   113  C    6.000000
   114  C    6.000000
   115  C    6.000000
   116  C    6.000000
   117  C    6.000000
   118  O    8.000000
   119  C    6.000000
   120  C    6.000000
   121  O    8.000000
   122  O    8.000000
   123  C    6.000000
   124  H    1.000000
   125  H    1.000000
   126  H    1.000000
   127  H    1.000000
   128  H    1.000000
   129  H    1.000000
   130  H    1.000000
   131  H    1.000000
   132  H    1.000000
   133  H    1.000000
   134  H    1.000000
   135  H    1.000000
   136  H    1.000000
   137  H    1.000000
   138  H    1.000000
   139  H    1.000000
   140  H    1.000000
   141  H    1.000000
   142  H    1.000000
   143  H    1.000000
   144  H    1.000000
   145  H    1.000000
   146  H    1.000000
   147  H    1.000000
   148  H    1.000000
   149  H    1.000000
   150  H    1.000000
   151  H    1.000000
   152  H    1.000000
   153  H    1.000000
   154  H    1.000000
   155  H    1.000000
   156  H    1.000000
   157  H    1.000000
   158  H    1.000000
 Sum of Mulliken charges = 624.00000

 Dipole moment (field-independent basis, Debye):
    X=             -0.0000    Y=              0.0000    Z=             -0.0000  Tot=              0.0000
 Quadrupole moment (field-independent basis, Debye-Ang):
   XX=              0.0000   YY=             -0.0000   ZZ=             -0.0000
   XY=             -0.0000   XZ=              0.0000   YZ=              0.0000

 Normal termination of Gaussian 16 at Thu Oct 14 23:46:50 2021.
