 Gaussian 16, Revision A.03,
 Gaussian 16:  ES64L-G16RevA.03 25-Dec-2016

 --------------------------------------------------------
 #p PBE1PBE/Def2SVP td=(nstates=5) density=(transition=1)
 --------------------------------------------------------

 --------------------------------
 TDDFT excited states in gaussian
 --------------------------------
 Symbolic Z-matrix:
 Charge =  0 Multiplicity = 1

                         Standard orientation:
 ---------------------------------------------------------------------
 Center     Atomic      Atomic             Coordinates (Angstroms)
 Number     Number       Type             X           Y           Z
 ---------------------------------------------------------------------
      1         12           0       31.977034    0.488239   -0.540952
      2          6           0       29.312531   -1.815300    0.488491
      3          6           0       29.529693    2.929440   -0.365611
      4          6           0       34.356108    2.605538   -0.376882
      5          6           0       34.183621   -2.319827   -0.144079
      6          7           0       29.621911    0.509263    0.171600
      7          6           0       28.774846   -0.519170    0.522408
      8          6           0       27.379946    0.074805    0.939805
      9          6           0       27.395723    1.514483    0.397324
     10          6           0       28.924562    1.669280    0.047234
     11          6           0       26.522488    1.852286   -0.881831
     12          6           0       27.077675   -0.043685    2.472932
     13          6           0       25.654005   -0.389219    2.853167
     14          1           0       24.755838    0.785995    3.351895
     15          7           0       31.968798    2.467307   -0.517958
     16          6           0       30.897558    3.317854   -0.557206
     17          6           0       31.373268    4.728289   -0.570088
     18          6           0       32.788383    4.622398   -0.547715
     19          6           0       33.087124    3.196895   -0.435306
     20          6           0       30.510108    5.999824   -0.526871
     21          6           0       33.825581    5.738429   -0.393364
     22          8           0       33.410306    6.894130   -0.390258
     23          6           0       35.217039    5.538709   -0.287788
     24          7           0       34.006334    0.157703   -0.019800
     25          6           0       34.795675    1.255065   -0.301307
     26          6           0       36.303953    0.793299   -0.266944
     27          6           0       36.215732   -0.726696    0.119400
     28          6           0       34.711936   -0.995419   -0.128169
     29          6           0       37.118052    1.054217   -1.563936
     30          6           0       36.707093   -1.180981    1.552758
     31          6           0       38.219128   -1.355737    1.777414
     32          7           0       31.874833   -1.659346   -0.004897
     33          6           0       32.833402   -2.652712   -0.023520
     34          6           0       32.254253   -3.962613    0.151283
     35          6           0       30.850273   -3.678844    0.342841
     36          6           0       30.618143   -2.259591    0.304485
     37          6           0       33.046012   -5.232775    0.204034
     38          6           0       29.627446   -4.279154    0.640553
     39          8           0       29.354090   -5.423488    0.976612
     40          6           0       28.606106   -3.129437    0.878730
     41          6           0       27.476074   -3.422127   -0.080507
     42          8           0       26.288025   -3.429764    0.251261
     43          8           0       27.856610   -3.535589   -1.478125
     44          6           0       26.706817   -3.455039   -2.377576
     45          1           0       28.764881    3.707868   -0.389715
     46          1           0       35.266008    3.196897   -0.498630
     47          1           0       34.966588   -3.080895   -0.139622
     48          1           0       26.609263   -0.392200    0.324912
     49          1           0       27.207134    2.245846    1.183219
     50          1           0       25.681797    2.427666   -0.494750
     51          1           0       26.109395    0.947557   -1.326894
     52          1           0       27.048985    2.356765   -1.691951
     53          1           0       27.190784    0.885503    3.032014
     54          1           0       27.691601   -0.825580    2.920479
     55          1           0       25.707735   -1.216348    3.561055
     56          1           0       25.160664   -0.772730    1.959495
     57          1           0       30.932225    6.754769   -1.190711
     58          1           0       30.507455    6.275986    0.527498
     59          1           0       29.507234    5.804737   -0.904280
     60          1           0       35.572678    5.139414   -1.238158
     61          1           0       35.531006    4.941860    0.568596
     62          1           0       35.548111    6.547890   -0.040361
     63          1           0       36.891543    1.273406    0.514857
     64          1           0       36.717922   -1.353073   -0.617466
     65          1           0       37.489406    0.075335   -1.867544
     66          1           0       37.952072    1.710303   -1.316770
     67          1           0       36.386137    1.504406   -2.235673
     68          1           0       36.212010   -2.142362    1.693486
     69          1           0       36.437958   -0.443370    2.309085
     70          1           0       38.593083   -1.173878    0.769441
     71          1           0       38.469884   -2.396741    1.986156
     72          1           0       38.695435   -0.688465    2.495323
     73          1           0       33.763335   -5.089327    1.011034
     74          1           0       33.669833   -5.393317   -0.675086
     75          1           0       32.457274   -6.086614    0.539579
     76          1           0       28.231798   -3.246743    1.895520
     77          1           0       27.270392   -3.090316   -3.237167
     78          1           0       25.890966   -2.870771   -1.952051
     79          1           0       26.425815   -4.483390   -2.605139
     80         12           0      -31.983755    0.142805    0.356016
     81          6           0      -29.540926   -1.756817   -1.277589
     82          6           0      -32.733082    1.701377   -2.591859
     83          6           0      -34.026151    2.133935    2.030893
     84          6           0      -30.966553   -1.429066    3.400839
     85          7           0      -31.163070   -0.001694   -1.697609
     86          6           0      -30.221385   -0.877386   -2.190648
     87          6           0      -30.212842   -0.850127   -3.707928
     88          6           0      -31.034384    0.456787   -4.043969
     89          6           0      -31.759127    0.664763   -2.670564
     90          6           0      -30.161644    1.646059   -4.424336
     91          6           0      -30.689960   -2.237666   -4.272703
     92          6           0      -30.916655   -2.233880   -5.810011
     93          1           0      -30.057771   -1.286491   -6.621624
     94          7           0      -33.180348    1.637835   -0.189462
     95          6           0      -33.294450    2.231446   -1.440235
     96          6           0      -34.222165    3.376021   -1.418347
     97          6           0      -34.622072    3.459204   -0.049099
     98          6           0      -33.925280    2.386516    0.655867
     99          6           0      -34.603164    4.136858   -2.632716
    100          6           0      -35.567435    4.474527    0.539436
    101          8           0      -35.903455    4.448125    1.755865
    102          6           0      -36.220210    5.523915   -0.318903
    103          7           0      -32.472056    0.281623    2.440698
    104          6           0      -33.355002    1.204529    2.823036
    105          6           0      -33.464964    1.241335    4.410700
    106          6           0      -32.415900    0.083689    4.873589
    107          6           0      -31.906942   -0.376434    3.506851
    108          6           0      -33.099482    2.700397    4.906138
    109          6           0      -33.081857   -1.140530    5.635783
    110          6           0      -33.260790   -0.966124    7.171300
    111          7           0      -30.550050   -1.217153    1.000637
    112          6           0      -30.307171   -1.867506    2.239300
    113          6           0      -29.215811   -2.921556    2.057163
    114          6           0      -28.832152   -2.867430    0.720981
    115          6           0      -29.737920   -1.864362    0.105102
    116          6           0      -28.680288   -3.873572    3.080290
    117          6           0      -27.995120   -3.434813   -0.310104
    118          8           0      -27.128930   -4.314815   -0.283541
    119          6           0      -28.547391   -2.862905   -1.708696
    120          6           0      -27.444300   -2.360586   -2.611852
    121          8           0      -26.994854   -1.247257   -2.569741
    122          8           0      -27.181548   -3.278041   -3.654177
    123          6           0      -26.486265   -2.764716   -4.844052
    124          1           0      -32.820670    2.134617   -3.590765
    125          1           0      -34.690307    2.804559    2.580372
    126          1           0      -30.536077   -1.870938    4.301999
    127          1           0      -29.177527   -0.734466   -4.026096
    128          1           0      -31.813842    0.342206   -4.797933
    129          1           0      -30.507226    1.959615   -5.409287
    130          1           0      -29.117115    1.343837   -4.352265
    131          1           0      -30.389539    2.539690   -3.843802
    132          1           0      -31.476745   -2.495430   -3.564424
    133          1           0      -29.884670   -2.933053   -4.038361
    134          1           0      -31.974378   -1.986411   -5.900357
    135          1           0      -30.729877   -3.242063   -6.179575
    136          1           0      -34.199526    5.127140   -2.422423
    137          1           0      -35.675113    4.127256   -2.828220
    138          1           0      -34.166954    3.865403   -3.594888
    139          1           0      -36.866777    5.033503   -1.045309
    140          1           0      -35.316165    5.990160   -0.712566
    141          1           0      -36.768738    6.306668    0.204306
    142          1           0      -34.504774    0.935485    4.532639
    143          1           0      -31.470350    0.406477    5.311369
    144          1           0      -32.821829    3.392022    4.110921
    145          1           0      -32.253747    2.656519    5.592890
    146          1           0      -34.019747    3.100306    5.330891
    147          1           0      -32.647758   -2.096131    5.343086
    148          1           0      -34.095794   -1.211378    5.243405
    149          1           0      -34.317316   -1.127924    7.382066
    150          1           0      -32.876246    0.013740    7.454606
    151          1           0      -32.700207   -1.711524    7.735918
    152          1           0      -29.080238   -4.853596    2.819201
    153          1           0      -28.984104   -3.562945    4.080675
    154          1           0      -27.601521   -4.022728    3.121303
    155          1           0      -29.097895   -3.682235   -2.170114
    156          1           0      -25.438583   -2.708794   -4.549727
    157          1           0      -26.956061   -1.848125   -5.201351
    158          1           0      -26.653920   -3.498949   -5.631566
 ---------------------------------------------------------------------

 SCF Done:  E(RPBE1PBE) =  -4067.33949389     A.U. after   16 cycles

 Excitation energies and oscillator strengths:

 Excited State   1:      Singlet-A      1.8008 eV  688.51 nm  f=0.0000  <S**2>=0.000
     312 -> 313        0.70711
 This state for optimization and/or second-order correction.
 Total Energy, E(TD-HF/TD-DFT) =  -4067.27331722
 Copying the excited state density for this state as the 1-particle RhoCI density.

 Excited State   2:      Singlet-A      1.8621 eV  665.83 nm  f=0.3686  <S**2>=0.000
     310 -> 316        0.19121
     312 -> 314        0.68814
     312 <- 314       -0.10016

 Excited State   3:      Singlet-A      1.8703 eV  662.91 nm  f=0.3473  <S**2>=0.000
     309 -> 315       -0.19147
     311 -> 313        0.68642

 Excited State   4:      Singlet-A      2.2322 eV  555.44 nm  f=0.0728  <S**2>=0.000
     308 -> 313       -0.10214
     309 -> 313        0.63201
     311 -> 315        0.29400

 Excited State   5:      Singlet-A      2.2922 eV  540.89 nm  f=0.0000  <S**2>=0.000
     311 -> 314        0.70711

 The electronic state is 1-A.
 Alpha  occ. eigenvalues --  -46.94132 -46.91491 -19.24627 -19.24372 -19.20459
 Alpha  occ. eigenvalues --  -19.20326 -19.19408 -19.18926 -19.18585 -19.18176
 Alpha  occ. eigenvalues --  -14.42074 -14.41632 -14.41594 -14.41132 -14.40320
 Alpha  occ. eigenvalues --  -14.39643 -14.39513 -14.38905 -10.36453 -10.36404
 Alpha  occ. eigenvalues --  -10.32679 -10.32329 -10.31968 -10.30697 -10.29922
 Alpha  occ. eigenvalues --  -10.29553 -10.29460 -10.29070 -10.28961 -10.28863
 Alpha  occ. eigenvalues --  -10.28781 -10.28763 -10.28581 -10.28447 -10.28075
 Alpha  occ. eigenvalues --  -10.28067 -10.27995 -10.27907 -10.27747 -10.27281
 Alpha  occ. eigenvalues --  -10.27240 -10.27144 -10.27135 -10.27126 -10.26848
 Alpha  occ. eigenvalues --  -10.26760 -10.26672 -10.26655 -10.26642 -10.26191
 Alpha  occ. eigenvalues --  -10.26169 -10.26166 -10.26116 -10.26104 -10.25998
 Alpha  occ. eigenvalues --  -10.25961 -10.25960 -10.25941 -10.25811 -10.25586
 Alpha  occ. eigenvalues --  -10.25505 -10.25227 -10.25065 -10.25044 -10.24953
 Alpha  occ. eigenvalues --  -10.24774 -10.24648 -10.24521 -10.24466 -10.24427
 Alpha  occ. eigenvalues --  -10.24403 -10.24345 -10.24127 -10.24095 -10.23950
 Alpha  occ. eigenvalues --  -10.23760 -10.23746 -10.23669 -10.23641 -10.23506
 Alpha  occ. eigenvalues --  -10.23299 -10.23231 -10.23077 -10.23071 -10.22882
 Alpha  occ. eigenvalues --  -10.22840  -3.16124  -3.13749  -1.88906  -1.88550
 Alpha  occ. eigenvalues --   -1.88311  -1.86596  -1.86109  -1.86004  -1.10184
 Alpha  occ. eigenvalues --   -1.08663  -1.05101  -1.03845  -1.03791  -1.02592
 Alpha  occ. eigenvalues --   -1.02446  -1.01176  -0.99561  -0.98921  -0.98094
 Alpha  occ. eigenvalues --   -0.98001  -0.97891  -0.97444  -0.96070  -0.95836
 Alpha  occ. eigenvalues --   -0.87309  -0.85948  -0.83248  -0.83194  -0.83155
 Alpha  occ. eigenvalues --   -0.82827  -0.82769  -0.82097  -0.81863  -0.81266
 Alpha  occ. eigenvalues --   -0.81118  -0.81042  -0.80657  -0.80344  -0.79231
 Alpha  occ. eigenvalues --   -0.78502  -0.78117  -0.77923  -0.77233  -0.76830
 Alpha  occ. eigenvalues --   -0.76321  -0.76171  -0.75527  -0.75043  -0.74329
 Alpha  occ. eigenvalues --   -0.74231  -0.73207  -0.72512  -0.71760  -0.71665
 Alpha  occ. eigenvalues --   -0.71313  -0.71271  -0.70132  -0.70075  -0.69607
 Alpha  occ. eigenvalues --   -0.68903  -0.67337  -0.66523  -0.66379  -0.65906
 Alpha  occ. eigenvalues --   -0.63710  -0.63500  -0.63039  -0.62977  -0.62771
 Alpha  occ. eigenvalues --   -0.62152  -0.61482  -0.61377  -0.60008  -0.59930
 Alpha  occ. eigenvalues --   -0.59833  -0.59646  -0.59471  -0.58603  -0.58462
 Alpha  occ. eigenvalues --   -0.58285  -0.56398  -0.55845  -0.55187  -0.54880
 Alpha  occ. eigenvalues --   -0.54424  -0.54062  -0.53772  -0.53510  -0.53258
 Alpha  occ. eigenvalues --   -0.52197  -0.52175  -0.51848  -0.51544  -0.51352
 Alpha  occ. eigenvalues --   -0.51212  -0.50746  -0.50307  -0.50271  -0.49351
 Alpha  occ. eigenvalues --   -0.49155  -0.48736  -0.48731  -0.48465  -0.48422
 Alpha  occ. eigenvalues --   -0.48295  -0.48114  -0.47964  -0.47846  -0.47845
 Alpha  occ. eigenvalues --   -0.47466  -0.47139  -0.47114  -0.46778  -0.46595
 Alpha  occ. eigenvalues --   -0.46501  -0.46405  -0.46344  -0.45972  -0.45908
 Alpha  occ. eigenvalues --   -0.45734  -0.45591  -0.45343  -0.45238  -0.45035
 Alpha  occ. eigenvalues --   -0.44587  -0.44510  -0.44491  -0.44090  -0.44056
 Alpha  occ. eigenvalues --   -0.44034  -0.43881  -0.43867  -0.43636  -0.43619
 Alpha  occ. eigenvalues --   -0.43514  -0.43300  -0.43160  -0.43033  -0.42844
 Alpha  occ. eigenvalues --   -0.42781  -0.42695  -0.42629  -0.42402  -0.42017
 Alpha  occ. eigenvalues --   -0.41866  -0.41525  -0.41459  -0.41134  -0.40922
 Alpha  occ. eigenvalues --   -0.40906  -0.40766  -0.40601  -0.40459  -0.40321
 Alpha  occ. eigenvalues --   -0.40155  -0.39974  -0.39857  -0.39745  -0.39653
 Alpha  occ. eigenvalues --   -0.39491  -0.39427  -0.39269  -0.39144  -0.38973
 Alpha  occ. eigenvalues --   -0.38934  -0.38809  -0.38724  -0.38478  -0.38301
 Alpha  occ. eigenvalues --   -0.38045  -0.37976  -0.37826  -0.37724  -0.37473
 Alpha  occ. eigenvalues --   -0.37407  -0.37357  -0.37169  -0.37142  -0.37027
 Alpha  occ. eigenvalues --   -0.36841  -0.36733  -0.36362  -0.36265  -0.36163
 Alpha  occ. eigenvalues --   -0.36067  -0.35753  -0.35275  -0.35180  -0.35068
 Alpha  occ. eigenvalues --   -0.35057  -0.34839  -0.34257  -0.34128  -0.34050
 Alpha  occ. eigenvalues --   -0.33800  -0.33462  -0.33241  -0.32995  -0.32878
 Alpha  occ. eigenvalues --   -0.32555  -0.32159  -0.31750  -0.31344  -0.31190
 Alpha  occ. eigenvalues --   -0.30926  -0.30252  -0.29666  -0.29385  -0.29357
 Alpha  occ. eigenvalues --   -0.29222  -0.28686  -0.28407  -0.27106  -0.26833
 Alpha  occ. eigenvalues --   -0.26652  -0.26385  -0.26073  -0.25757  -0.25590
 Alpha  occ. eigenvalues --   -0.25190  -0.25162  -0.24432  -0.21379  -0.20883
 Alpha  occ. eigenvalues --   -0.19106  -0.18155
 Alpha virt. eigenvalues --   -0.11328  -0.10474  -0.06107  -0.05535  -0.04400
 Alpha virt. eigenvalues --   -0.04372  -0.02417  -0.02188  -0.02150  -0.00187
 Alpha virt. eigenvalues --    0.00097   0.00144   0.00612   0.01098   0.01384

 Mulliken charges:
               1
     1  Mg  12.000000
     2  C    6.000000
     3  C    6.000000
     4  C    6.000000
     5  C    6.000000
     6  N    7.000000
     7  C    6.000000
     8  C    6.000000
     9  C    6.000000
    10  C    6.000000
    11  C    6.000000
    12  C    6.000000
    13  C    6.000000
    14  H    1.000000
    15  N    7.000000
    16  C    6.000000
    17  C    6.000000
    18  C    6.000000
    19  C    6.000000
    20  C    6.000000
    21  C    6.000000
    22  O    8.000000
    23  C    6.000000
    24  N    7.000000
    25  C    6.000000
    26  C    6.000000
    27  C    6.000000
    28  C    6.000000
    29  C    6.000000
    30  C    6.000000
    31  C    6.000000
    32  N    7.000000
    33  C    6.000000
    34  C    6.000000
    35  C    6.000000
    36  C    6.000000
    37  C    6.000000
    38  C    6.000000
    39  O    8.000000
    40  C    6.000000
    41  C    6.000000
    42  O    8.000000
    43  O    8.000000
    44  C    6.000000
    45  H    1.000000
    46  H    1.000000
    47  H    1.000000
    48  H    1.000000
    49  H    1.000000
    50  H    1.000000
    51  H    1.000000
    52  H    1.000000
    53  H    1.000000
    54  H    1.000000
    55  H    1.000000
    56  H    1.000000
    57  H    1.000000
    58  H    1.000000
    59  H    1.000000
    60  H    1.000000
    61  H    1.000000
    62  H    1.000000
    63  H    1.000000
    64  H    1.000000
    65  H    1.000000
    66  H    1.000000
    67  H    1.000000
    68  H    1.000000
    69  H    1.000000
    70  H    1.000000
    71  H    1.000000
    72  H    1.000000
    73  H    1.000000
    74  H    1.000000
    75  H    1.000000
    76  H    1.000000
    77  H    1.000000
    78  H    1.000000
    79  H    1.000000
    80  Mg  12.000000
    81  C    6.000000
    82  C    6.000000
    83  C    6.000000
    84  C    6.000000
    85  N    7.000000
    86  C    6.000000
    87  C    6.000000
    88  C    6.000000
    89  C    6.000000
    90  C    6.000000
    91  C    6.000000
    92  C    6.000000
    93  H    1.000000
    94  N    7.000000
    95  C    6.000000
    96  C    6.000000
    97  C    6.000000
    98  C    6.000000
    99  C    6.000000
   100  C    6.000000
   101  O    8.000000
   102  C    6.000000
   103  N    7.000000
   104  C    6.000000
   105  C    6.000000
   106  C    6.000000
   107  C    6.000000
   108  C    6.000000
   109  C    6.000000
   110  C    6.000000
   111  N    7.000000
   112  C    6.000000
   113  C    6.000000
   114  C    6.000000
   115  C    6.000000
   116  C    6.000000
   117  C    6.000000
   118  O    8.000000
   119  C    6.000000
   120  C    6.000000
   121  O    8.000000
   122  O    8.000000
   123  C    6.000000
   124  H    1.000000
   125  H    1.000000
   126  H    1.000000
   127  H    1.000000
   128  H    1.000000
   129  H    1.000000
   130  H    1.000000
   131  H    1.000000
   132  H    1.000000
   133  H    1.000000
   134  H    1.000000
   135  H    1.000000
   136  H    1.000000
   137  H    1.000000
   138  H    1.000000
   139  H    1.000000
   140  H    1.000000
   141  H    1.000000
   142  H    1.000000
   143  H    1.000000
   144  H    1.000000
   145  H    1.000000
   146  H    1.000000
   147  H    1.000000
   148  H    1.000000
   149  H    1.000000
   150  H    1.000000
   151  H    1.000000
   152  H    1.000000
   153  H    1.000000
   154  H    1.000000
   155  H    1.000000
   156  H    1.000000
   157  H    1.000000
   158  H    1.000000
 Sum of Mulliken charges = 624.00000

 Dipole moment (field-independent basis, Debye):
    X=             -0.0000    Y=              0.0000    Z=             -0.0000  Tot=              0.0000
 Quadrupole moment (field-independent basis, Debye-Ang):
   XX=              0.0000   YY=              0.0000   ZZ=             -0.0000
   XY=             -0.0000   XZ=              0.0000   YZ=              0.0000

 Normal termination of Gaussian 16 at Fri Oct 15 07:51:18 2021.
