 Gaussian 16, Revision A.03,
 Gaussian 16:  ES64L-G16RevA.03 25-Dec-2016

 --------------------------------------------------------
 #p PBE1PBE/Def2SVP td=(nstates=5) density=(transition=1)
 --------------------------------------------------------

 --------------------------------
 TDDFT excited states in gaussian
 --------------------------------
 Symbolic Z-matrix:
 Charge =  0 Multiplicity = 1

                         Standard orientation:
 ---------------------------------------------------------------------
 Center     Atomic      Atomic             Coordinates (Angstroms)
 Number     Number       Type             X           Y           Z
 ---------------------------------------------------------------------
      1         12           0       27.608146    0.437496    0.176983
      2          6           0       24.438670   -0.258999   -1.018371
      3          6           0       26.293345    0.360998    3.472171
      4          6           0       30.779979    0.546391    1.469182
      5          6           0       28.952100    0.036270   -2.979252
      6          7           0       25.566294    0.216090    1.059109
      7          6           0       24.439910   -0.165371    0.360888
      8          6           0       23.220134   -0.552044    1.278641
      9          6           0       23.708397    0.036847    2.685400
     10          6           0       25.299934    0.284463    2.443776
     11          6           0       22.998502    1.314946    3.274393
     12          6           0       22.914256   -2.006801    1.349546
     13          6           0       21.571911   -2.541188    0.888324
     14          1           0       21.081841   -3.822646    1.581473
     15          7           0       28.422129    0.546785    2.210842
     16          6           0       27.657381    0.552250    3.392584
     17          6           0       28.516426    0.738799    4.518409
     18          6           0       29.889028    0.637453    3.956791
     19          6           0       29.767283    0.554852    2.468325
     20          6           0       28.039781    0.728574    5.974579
     21          6           0       31.129071    0.659409    4.867445
     22          8           0       31.150391    0.728610    6.092958
     23          6           0       32.420918    0.242760    4.258478
     24          7           0       29.684867    0.124296   -0.647009
     25          6           0       30.768409    0.410178    0.087736
     26          6           0       31.979012   -0.025058   -0.736737
     27          6           0       31.456935   -0.122251   -2.245843
     28          6           0       29.895234    0.050535   -1.979133
     29          6           0       33.092137    1.079366   -0.662113
     30          6           0       31.773070   -1.413010   -3.107548
     31          6           0       32.672681   -1.324695   -4.331279
     32          7           0       26.847451    0.050650   -1.701687
     33          6           0       27.511520   -0.052632   -2.927991
     34          6           0       26.578770   -0.385112   -3.961023
     35          6           0       25.326141   -0.490810   -3.281083
     36          6           0       25.585758   -0.156040   -1.895014
     37          6           0       26.839736   -0.605502   -5.417750
     38          6           0       23.943870   -0.708104   -3.404823
     39          8           0       23.313960   -0.962297   -4.411898
     40          6           0       23.321097   -0.651969   -1.956200
     41          6           0       22.091806    0.154931   -2.005370
     42          8           0       20.966596   -0.330106   -1.969758
     43          8           0       22.407442    1.500402   -2.121905
     44          6           0       21.212824    2.368698   -2.221733
     45          1           0       25.999836    0.402389    4.522757
     46          1           0       31.748247    0.672585    1.958868
     47          1           0       29.400760   -0.128765   -3.960920
     48          1           0       22.333461   -0.012617    0.947394
     49          1           0       23.661111   -0.788307    3.396930
     50          1           0       22.087132    1.468146    2.696522
     51          1           0       23.607304    2.219098    3.262271
     52          1           0       22.795333    1.107662    4.324376
     53          1           0       22.950841   -2.275598    2.406325
     54          1           0       23.639303   -2.567854    0.760922
     55          1           0       21.672313   -2.825811   -0.158652
     56          1           0       20.753000   -1.837538    1.036118
     57          1           0       27.000707    0.522294    6.230264
     58          1           0       28.381016    1.701041    6.328639
     59          1           0       28.759732    0.073522    6.464129
     60          1           0       33.063722    0.989080    3.793645
     61          1           0       32.306262   -0.613744    3.593961
     62          1           0       33.041637   -0.102864    5.085967
     63          1           0       32.393245   -0.979173   -0.410095
     64          1           0       31.729846    0.777695   -2.795837
     65          1           0       34.020566    0.570860   -0.402261
     66          1           0       32.902714    1.891136    0.041336
     67          1           0       33.237292    1.607845   -1.604594
     68          1           0       30.788579   -1.775713   -3.402229
     69          1           0       32.296539   -2.084726   -2.425782
     70          1           0       32.385462   -2.172697   -4.953479
     71          1           0       33.706268   -1.478977   -4.020668
     72          1           0       32.625607   -0.451785   -4.981509
     73          1           0       25.870603   -0.833222   -5.862397
     74          1           0       27.570314   -1.410079   -5.495809
     75          1           0       27.233167    0.257433   -5.955320
     76          1           0       23.024318   -1.684188   -1.767288
     77          1           0       20.928414    2.495643   -3.266235
     78          1           0       21.465007    3.283324   -1.685154
     79          1           0       20.366963    1.959527   -1.670017
     80         12           0      -26.843664   -0.672421    0.342560
     81          6           0      -27.715617    2.708578    0.132338
     82          6           0      -24.369889   -0.189425   -1.759082
     83          6           0      -26.522057   -4.076236    0.004303
     84          6           0      -29.794230   -1.279773    2.183972
     85          7           0      -26.114007    1.078544   -0.575619
     86          6           0      -26.539014    2.387307   -0.510580
     87          6           0      -25.554595    3.335568   -1.182839
     88          6           0      -24.636696    2.335624   -1.956602
     89          6           0      -24.976321    1.026486   -1.333554
     90          6           0      -24.627775    2.344293   -3.469996
     91          6           0      -24.828401    4.323561   -0.214979
     92          6           0      -23.856599    5.299513   -0.887203
     93          1           0      -24.050736    6.771308   -0.553095
     94          7           0      -25.588180   -2.015286   -0.837225
     95          6           0      -24.521098   -1.578954   -1.538415
     96          6           0      -23.769725   -2.709779   -2.008132
     97          6           0      -24.455361   -3.862428   -1.587623
     98          6           0      -25.587535   -3.333588   -0.779310
     99          6           0      -22.519977   -2.599373   -2.855782
    100          6           0      -24.108534   -5.303152   -1.774670
    101          8           0      -24.842413   -6.288417   -1.494434
    102          6           0      -22.738012   -5.696213   -2.312392
    103          7           0      -27.994016   -2.387229    0.967601
    104          6           0      -27.679482   -3.662149    0.640047
    105          6           0      -28.627856   -4.685579    1.468601
    106          6           0      -29.327523   -3.723234    2.491511
    107          6           0      -28.992666   -2.379363    1.928438
    108          6           0      -29.597852   -5.418281    0.461334
    109          6           0      -28.637815   -3.809553    3.901960
    110          6           0      -27.129282   -3.646726    4.004788
    111          7           0      -28.472536    0.488839    1.112491
    112          6           0      -29.557908    0.065533    1.829328
    113          6           0      -30.325987    1.189346    2.105693
    114          6           0      -29.712937    2.305004    1.466168
    115          6           0      -28.578088    1.823853    0.867985
    116          6           0      -31.629255    1.280928    2.818038
    117          6           0      -29.770372    3.751471    1.155656
    118          8           0      -30.587983    4.633747    1.391139
    119          6           0      -28.396836    4.080801    0.349764
    120          6           0      -28.680542    4.922546   -0.843029
    121          8           0      -29.717478    4.828728   -1.564764
    122          8           0      -27.747781    5.864511   -0.881126
    123          6           0      -28.110505    7.024309   -1.672941
    124          1           0      -23.467493   -0.070232   -2.362548
    125          1           0      -26.412645   -5.161234   -0.063481
    126          1           0      -30.624502   -1.485005    2.861508
    127          1           0      -26.186670    3.981150   -1.792893
    128          1           0      -23.579295    2.459477   -1.720287
    129          1           0      -25.000503    3.244139   -3.959294
    130          1           0      -25.171909    1.472343   -3.833920
    131          1           0      -23.629730    2.035660   -3.781676
    132          1           0      -24.313855    3.760619    0.564187
    133          1           0      -25.576035    4.908226    0.320041
    134          1           0      -24.105770    5.446457   -1.937968
    135          1           0      -22.821878    4.980506   -0.758524
    136          1           0      -22.286956   -1.591643   -3.199501
    137          1           0      -22.566757   -3.076338   -3.834465
    138          1           0      -21.625272   -2.979336   -2.361636
    139          1           0      -22.691610   -5.394351   -3.358364
    140          1           0      -22.646271   -6.773725   -2.447077
    141          1           0      -21.914437   -5.352415   -1.685546
    142          1           0      -28.013801   -5.457783    1.932026
    143          1           0      -30.390662   -3.946554    2.402500
    144          1           0      -29.307384   -5.304519   -0.583221
    145          1           0      -30.628766   -5.065856    0.498468
    146          1           0      -29.617781   -6.500150    0.584626
    147          1           0      -28.950502   -4.816194    4.179640
    148          1           0      -29.042299   -3.127454    4.649170
    149          1           0      -26.678841   -3.690973    3.012969
    150          1           0      -26.617745   -4.299533    4.711255
    151          1           0      -27.034335   -2.668781    4.476774
    152          1           0      -31.628578    0.838866    3.814688
    153          1           0      -32.321514    0.697782    2.211422
    154          1           0      -32.006338    2.301698    2.871760
    155          1           0      -27.824285    4.681040    1.056399
    156          1           0      -27.826220    7.937687   -1.148927
    157          1           0      -29.171322    7.149673   -1.888535
    158          1           0      -27.533545    6.947015   -2.595063
 ---------------------------------------------------------------------

 SCF Done:  E(RPBE1PBE) =  -4067.37307713     A.U. after   16 cycles

 Excitation energies and oscillator strengths:

 Excited State   1:      Singlet-A      1.8527 eV  669.22 nm  f=0.3683  <S**2>=0.000
     310 -> 316        0.15625
     312 -> 314        0.69590
     312 <- 314       -0.11158
 This state for optimization and/or second-order correction.
 Total Energy, E(TD-HF/TD-DFT) =  -4067.30499311
 Copying the excited state density for this state as the 1-particle RhoCI density.

 Excited State   2:      Singlet-A      1.8779 eV  660.24 nm  f=0.0000  <S**2>=0.000
     312 -> 313        0.70711

 Excited State   3:      Singlet-A      2.1214 eV  584.45 nm  f=0.0000  <S**2>=0.000
     311 -> 314        0.70711

 Excited State   4:      Singlet-A      2.3335 eV  531.32 nm  f=0.0000  <S**2>=0.000
     310 -> 313        0.70711

 Excited State   5:      Singlet-A      2.6148 eV  474.16 nm  f=0.0000  <S**2>=0.000
     309 -> 314        0.70711

 The electronic state is 1-A.
 Alpha  occ. eigenvalues --  -46.93893 -46.92772 -19.27349 -19.25860 -19.20178
 Alpha  occ. eigenvalues --  -19.19422 -19.19191 -19.19110 -19.18919 -19.18825
 Alpha  occ. eigenvalues --  -14.42987 -14.42349 -14.41580 -14.41387 -14.39664
 Alpha  occ. eigenvalues --  -14.39660 -14.39247 -14.37880 -10.36327 -10.36236
 Alpha  occ. eigenvalues --  -10.32668 -10.32273 -10.32215 -10.31569 -10.30711
 Alpha  occ. eigenvalues --  -10.29607 -10.29578 -10.29540 -10.29283 -10.29276
 Alpha  occ. eigenvalues --  -10.28875 -10.28810 -10.28799 -10.28704 -10.28238
 Alpha  occ. eigenvalues --  -10.28183 -10.28038 -10.27985 -10.27841 -10.27265
 Alpha  occ. eigenvalues --  -10.27222 -10.27068 -10.27040 -10.26775 -10.26545
 Alpha  occ. eigenvalues --  -10.26520 -10.26358 -10.26322 -10.26312 -10.26247
 Alpha  occ. eigenvalues --  -10.26232 -10.26153 -10.26128 -10.26099 -10.25999
 Alpha  occ. eigenvalues --  -10.25833 -10.25808 -10.25708 -10.25679 -10.25653
 Alpha  occ. eigenvalues --  -10.25623 -10.25566 -10.25227 -10.25168 -10.25150
 Alpha  occ. eigenvalues --  -10.24992 -10.24771 -10.24695 -10.24528 -10.24416
 Alpha  occ. eigenvalues --  -10.24226 -10.24220 -10.24157 -10.23887 -10.23865
 Alpha  occ. eigenvalues --  -10.23747 -10.23723 -10.23695 -10.23419 -10.23213
 Alpha  occ. eigenvalues --  -10.23146 -10.22991 -10.22870 -10.22660 -10.22541
 Alpha  occ. eigenvalues --  -10.22298  -3.15695  -3.14744  -1.88562  -1.88043
 Alpha  occ. eigenvalues --   -1.87918  -1.87593  -1.87088  -1.86981  -1.12972
 Alpha  occ. eigenvalues --   -1.10380  -1.04790  -1.04662  -1.03751  -1.02848
 Alpha  occ. eigenvalues --   -1.02411  -1.00796  -0.99903  -0.99705  -0.98945
 Alpha  occ. eigenvalues --   -0.98800  -0.98106  -0.97224  -0.97086  -0.96291
 Alpha  occ. eigenvalues --   -0.87078  -0.86302  -0.83839  -0.83806  -0.83667
 Alpha  occ. eigenvalues --   -0.83569  -0.82603  -0.82519  -0.82151  -0.82049
 Alpha  occ. eigenvalues --   -0.81745  -0.81452  -0.80228  -0.79981  -0.79111
 Alpha  occ. eigenvalues --   -0.78754  -0.78246  -0.78093  -0.77184  -0.77176
 Alpha  occ. eigenvalues --   -0.76404  -0.76058  -0.75649  -0.75297  -0.75150
 Alpha  occ. eigenvalues --   -0.74858  -0.72940  -0.72288  -0.71955  -0.71681
 Alpha  occ. eigenvalues --   -0.71513  -0.71217  -0.70552  -0.70519  -0.69895
 Alpha  occ. eigenvalues --   -0.69587  -0.68056  -0.67280  -0.66767  -0.66154
 Alpha  occ. eigenvalues --   -0.64184  -0.63807  -0.63587  -0.63583  -0.62644
 Alpha  occ. eigenvalues --   -0.62451  -0.62259  -0.61568  -0.60104  -0.59929
 Alpha  occ. eigenvalues --   -0.59882  -0.59807  -0.59799  -0.59352  -0.59292
 Alpha  occ. eigenvalues --   -0.59071  -0.57637  -0.57366  -0.55412  -0.54847
 Alpha  occ. eigenvalues --   -0.54421  -0.54285  -0.54054  -0.53880  -0.53717
 Alpha  occ. eigenvalues --   -0.53165  -0.52484  -0.52151  -0.51887  -0.51535
 Alpha  occ. eigenvalues --   -0.51177  -0.50795  -0.50552  -0.50542  -0.50333
 Alpha  occ. eigenvalues --   -0.50053  -0.50022  -0.49940  -0.49384  -0.48937
 Alpha  occ. eigenvalues --   -0.48540  -0.48325  -0.48039  -0.47858  -0.47517
 Alpha  occ. eigenvalues --   -0.47425  -0.47368  -0.47301  -0.47072  -0.47066
 Alpha  occ. eigenvalues --   -0.46737  -0.46316  -0.46170  -0.46158  -0.45986
 Alpha  occ. eigenvalues --   -0.45718  -0.45614  -0.45234  -0.45004  -0.44860
 Alpha  occ. eigenvalues --   -0.44844  -0.44696  -0.44347  -0.44211  -0.44112
 Alpha  occ. eigenvalues --   -0.43700  -0.43678  -0.43572  -0.43523  -0.43384
 Alpha  occ. eigenvalues --   -0.43261  -0.43058  -0.42999  -0.42922  -0.42721
 Alpha  occ. eigenvalues --   -0.42709  -0.42376  -0.42013  -0.41964  -0.41798
 Alpha  occ. eigenvalues --   -0.41657  -0.41516  -0.41489  -0.41373  -0.41187
 Alpha  occ. eigenvalues --   -0.41027  -0.40842  -0.40793  -0.40746  -0.40661
 Alpha  occ. eigenvalues --   -0.40544  -0.40398  -0.40207  -0.40199  -0.40009
 Alpha  occ. eigenvalues --   -0.40008  -0.39591  -0.39481  -0.39349  -0.39211
 Alpha  occ. eigenvalues --   -0.39062  -0.39055  -0.38712  -0.38652  -0.38538
 Alpha  occ. eigenvalues --   -0.38528  -0.38179  -0.38041  -0.37816  -0.37574
 Alpha  occ. eigenvalues --   -0.37573  -0.37480  -0.37318  -0.37291  -0.37075
 Alpha  occ. eigenvalues --   -0.37040  -0.36472  -0.36461  -0.36427  -0.36257
 Alpha  occ. eigenvalues --   -0.36160  -0.36070  -0.35694  -0.35348  -0.35337
 Alpha  occ. eigenvalues --   -0.34988  -0.34702  -0.34536  -0.34444  -0.34199
 Alpha  occ. eigenvalues --   -0.33639  -0.33407  -0.32909  -0.32844  -0.32490
 Alpha  occ. eigenvalues --   -0.32342  -0.32245  -0.31993  -0.31821  -0.31637
 Alpha  occ. eigenvalues --   -0.31356  -0.30970  -0.29815  -0.29395  -0.29293
 Alpha  occ. eigenvalues --   -0.29212  -0.28802  -0.28252  -0.27472  -0.27377
 Alpha  occ. eigenvalues --   -0.26361  -0.26142  -0.25849  -0.25612  -0.25596
 Alpha  occ. eigenvalues --   -0.25256  -0.25062  -0.24420  -0.21614  -0.20998
 Alpha  occ. eigenvalues --   -0.19800  -0.19322
 Alpha virt. eigenvalues --   -0.12180  -0.11760  -0.05898  -0.04912  -0.04176
 Alpha virt. eigenvalues --   -0.04115  -0.02266  -0.02058  -0.01038  -0.00433
 Alpha virt. eigenvalues --   -0.00265   0.00331   0.00529   0.00583   0.01644

 Mulliken charges:
               1
     1  Mg  11.999921
     2  C    5.999178
     3  C    6.000003
     4  C    6.001012
     5  C    6.000032
     6  N    6.999490
     7  C    6.001071
     8  C    5.999654
     9  C    6.000150
    10  C    5.999049
    11  C    6.000141
    12  C    6.000029
    13  C    5.999926
    14  H    1.000165
    15  N    7.000316
    16  C    5.998802
    17  C    5.999340
    18  C    5.999681
    19  C    5.998677
    20  C    6.000106
    21  C    5.999594
    22  O    7.999306
    23  C    6.000226
    24  N    7.000294
    25  C    5.998819
    26  C    6.000304
    27  C    5.999866
    28  C    6.000818
    29  C    6.000068
    30  C    5.999881
    31  C    5.999974
    32  N    6.999928
    33  C    6.001167
    34  C    6.000833
    35  C    6.000077
    36  C    6.001063
    37  C    5.999972
    38  C    6.000583
    39  O    8.001072
    40  C    6.000147
    41  C    6.000155
    42  O    8.000287
    43  O    7.999907
    44  C    5.999897
    45  H    0.999556
    46  H    0.999967
    47  H    1.000430
    48  H    0.999929
    49  H    0.999940
    50  H    0.999558
    51  H    0.999968
    52  H    0.999930
    53  H    1.000271
    54  H    0.999827
    55  H    0.999789
    56  H    1.000063
    57  H    0.999477
    58  H    0.999449
    59  H    0.999534
    60  H    0.999523
    61  H    0.999664
    62  H    0.999622
    63  H    0.999963
    64  H    1.000015
    65  H    0.999990
    66  H    1.000172
    67  H    0.999773
    68  H    0.999791
    69  H    1.000345
    70  H    1.000031
    71  H    1.000220
    72  H    1.000011
    73  H    1.000405
    74  H    1.000565
    75  H    1.000616
    76  H    1.000204
    77  H    1.000019
    78  H    1.000191
    79  H    1.000211
    80  Mg  12.005735
    81  C    5.977440
    82  C    6.001252
    83  C    6.022109
    84  C    6.000662
    85  N    6.981648
    86  C    6.035114
    87  C    5.991315
    88  C    6.008329
    89  C    5.967444
    90  C    6.001438
    91  C    5.997389
    92  C    6.002935
    93  H    0.997302
    94  N    7.005777
    95  C    5.966128
    96  C    5.981704
    97  C    5.981730
    98  C    5.971856
    99  C    6.004880
   100  C    5.988893
   101  O    7.966424
   102  C    6.005933
   103  N    7.007537
   104  C    5.972144
   105  C    6.004355
   106  C    5.988220
   107  C    6.028614
   108  C    6.001471
   109  C    5.990549
   110  C    5.997971
   111  N    6.997297
   112  C    6.029284
   113  C    6.031281
   114  C    5.998224
   115  C    6.034309
   116  C    5.999258
   117  C    6.013646
   118  O    8.024428
   119  C    6.005060
   120  C    6.005832
   121  O    8.001195
   122  O    8.002106
   123  C    5.998496
   124  H    0.989394
   125  H    0.997704
   126  H    1.013793
   127  H    0.998009
   128  H    0.997566
   129  H    0.985945
   130  H    1.000524
   131  H    1.001094
   132  H    1.005498
   133  H    0.993156
   134  H    1.002668
   135  H    1.005057
   136  H    0.984105
   137  H    0.982197
   138  H    0.982321
   139  H    0.992741
   140  H    0.985886
   141  H    0.991434
   142  H    1.002802
   143  H    1.002859
   144  H    1.006572
   145  H    0.990540
   146  H    1.000617
   147  H    1.011306
   148  H    0.998099
   149  H    1.014639
   150  H    1.005688
   151  H    0.995636
   152  H    1.019443
   153  H    1.019672
   154  H    1.014495
   155  H    1.004221
   156  H    1.002958
   157  H    1.000586
   158  H    1.006061
 Sum of Mulliken charges = 624.00000

 Dipole moment (field-independent basis, Debye):
    X=             -7.5342    Y=              5.1563    Z=              4.6347  Tot=             10.2388
 Quadrupole moment (field-independent basis, Debye-Ang):
   XX=            396.9652   YY=             -8.0087   ZZ=              0.7410
   XY=           -135.3443   XZ=           -143.1517   YZ=             -6.7348

 Normal termination of Gaussian 16 at Fri Oct 15 07:16:34 2021.
