 Gaussian 16, Revision A.03,
 Gaussian 16:  ES64L-G16RevA.03 25-Dec-2016

 --------------------------------------------------------
 #p PBE1PBE/Def2SVP td=(nstates=5) density=(transition=1)
 --------------------------------------------------------

 --------------------------------
 TDDFT excited states in gaussian
 --------------------------------
 Symbolic Z-matrix:
 Charge =  0 Multiplicity = 1

                         Standard orientation:
 ---------------------------------------------------------------------
 Center     Atomic      Atomic             Coordinates (Angstroms)
 Number     Number       Type             X           Y           Z
 ---------------------------------------------------------------------
      1         12           0       -9.280851    0.341808    0.300121
      2          6           0       -7.747239   -2.385950   -1.440212
      3          6           0      -11.304761   -1.900597    1.933925
      4          6           0      -11.093518    2.859625    1.635281
      5          6           0       -7.852818    2.476148   -2.117868
      6          7           0       -9.468476   -1.873584    0.240026
      7          6           0       -8.711193   -2.814394   -0.475495
      8          6           0       -9.133706   -4.201885   -0.065566
      9          6           0      -10.562963   -3.945732    0.574501
     10          6           0      -10.479356   -2.425622    0.900869
     11          6           0      -11.645422   -4.275123   -0.514372
     12          6           0       -8.080155   -4.960666    0.816260
     13          6           0       -7.938493   -6.328215    0.370132
     14          1           0       -6.650029   -7.102524    0.948952
     15          7           0      -10.853828    0.372187    1.742496
     16          6           0      -11.511122   -0.646824    2.308956
     17          6           0      -12.412574   -0.137579    3.296308
     18          6           0      -12.395476    1.239738    3.228636
     19          6           0      -11.342178    1.595830    2.169533
     20          6           0      -13.380844   -1.066121    4.095910
     21          6           0      -13.155857    2.264720    4.095031
     22          8           0      -13.031998    3.439230    3.855978
     23          6           0      -13.972172    1.817181    5.284584
     24          7           0       -9.633842    2.341321   -0.379886
     25          6           0      -10.335014    3.198376    0.461196
     26          6           0      -10.113160    4.623458    0.070881
     27          6           0       -9.049709    4.511392   -1.127658
     28          6           0       -8.765922    3.028959   -1.188069
     29          6           0      -11.377409    5.348626   -0.245465
     30          6           0       -7.692397    5.399815   -1.011693
     31          6           0       -7.432278    6.413212   -2.055104
     32          7           0       -8.010284    0.162714   -1.409561
     33          6           0       -7.545812    1.137991   -2.262986
     34          6           0       -6.607071    0.470323   -3.265894
     35          6           0       -6.565587   -0.893001   -2.911128
     36          6           0       -7.477978   -1.037661   -1.807869
     37          6           0       -5.907396    1.199388   -4.421079
     38          6           0       -6.065909   -2.156809   -3.361220
     39          8           0       -5.290554   -2.432916   -4.304297
     40          6           0       -6.932310   -3.202154   -2.545816
     41          6           0       -5.920679   -4.280014   -2.052738
     42          8           0       -5.501794   -4.270606   -0.880692
     43          8           0       -5.697584   -5.185832   -3.036348
     44          6           0       -4.573004   -6.089232   -2.612923
     45          1           0      -11.791232   -2.602562    2.614939
     46          1           0      -11.653689    3.693336    2.065312
     47          1           0       -7.288734    3.064342   -2.844525
     48          1           0       -9.317944   -4.739995   -0.995126
     49          1           0      -10.735458   -4.578761    1.444191
     50          1           0      -11.718309   -3.522222   -1.298791
     51          1           0      -12.603149   -4.431150   -0.019689
     52          1           0      -11.392206   -5.226755   -0.982258
     53          1           0       -8.531880   -5.069013    1.802604
     54          1           0       -7.141313   -4.411945    0.894656
     55          1           0       -7.720435   -6.373081   -0.697027
     56          1           0       -8.848133   -6.858957    0.652226
     57          1           0      -13.150328   -0.819775    5.132345
     58          1           0      -13.209132   -2.133946    3.961228
     59          1           0      -14.411047   -0.869428    3.799399
     60          1           0      -14.502844    2.661827    5.724113
     61          1           0      -13.132310    1.459067    5.879892
     62          1           0      -14.654462    1.035169    4.951484
     63          1           0       -9.636625    5.038936    0.958993
     64          1           0       -9.565475    4.839467   -2.029785
     65          1           0      -11.497714    6.051692    0.577774
     66          1           0      -12.259964    4.711705   -0.188042
     67          1           0      -11.401863    5.852108   -1.212178
     68          1           0       -6.918448    4.642364   -1.135371
     69          1           0       -7.637701    5.786350    0.005126
     70          1           0       -6.528481    6.177901   -2.616535
     71          1           0       -7.194965    7.230181   -1.374531
     72          1           0       -8.319219    6.673245   -2.634486
     73          1           0       -6.560926    1.075325   -5.283839
     74          1           0       -4.925554    0.782384   -4.644920
     75          1           0       -5.744357    2.238785   -4.136066
     76          1           0       -7.618448   -3.589799   -3.297602
     77          1           0       -3.582182   -5.636730   -2.649631
     78          1           0       -4.514958   -7.031289   -3.157169
     79          1           0       -4.818352   -6.400568   -1.597355
     80         12           0        8.530935    0.947062    0.463623
     81          6           0       11.170369   -1.457549    0.943234
     82          6           0        6.324355   -1.556177    0.320108
     83          6           0        6.355421    3.139306   -0.837128
     84          6           0       11.044872    3.376066    0.173248
     85          7           0        8.750384   -1.214949    0.560383
     86          6           0        9.860606   -1.983759    0.949262
     87          6           0        9.449955   -3.476218    1.246732
     88          6           0        7.916024   -3.463369    0.970225
     89          6           0        7.621084   -1.974292    0.647652
     90          6           0        7.398407   -4.386515   -0.103495
     91          6           0        9.890489   -3.965064    2.728688
     92          6           0       10.701168   -5.266184    2.773809
     93          1           0       10.041837   -6.400632    3.643101
     94          7           0        6.551905    0.835989   -0.043325
     95          6           0        5.800077   -0.269404   -0.050322
     96          6           0        4.438040    0.008063   -0.509631
     97          6           0        4.495324    1.379627   -0.936799
     98          6           0        5.847685    1.857226   -0.630035
     99          6           0        3.368049   -0.997492   -0.523999
    100          6           0        3.329239    2.106830   -1.677232
    101          8           0        3.386670    3.289897   -1.968084
    102          6           0        2.057580    1.418114   -2.057926
    103          7           0        8.693991    2.903430   -0.201574
    104          6           0        7.588688    3.652728   -0.590217
    105          6           0        7.987936    5.139768   -0.864981
    106          6           0        9.408531    5.247425   -0.195170
    107          6           0        9.735605    3.766600   -0.004006
    108          6           0        7.851257    5.674137   -2.327917
    109          6           0        9.417679    6.009127    1.158493
    110          6           0       10.571872    6.930370    1.463235
    111          7           0       10.674081    0.983301    0.485735
    112          6           0       11.531630    2.038495    0.354825
    113          6           0       12.950634    1.551012    0.643990
    114          6           0       12.844966    0.210598    0.926574
    115          6           0       11.454276   -0.105209    0.749052
    116          6           0       14.139558    2.483160    0.698811
    117          6           0       13.541034   -1.017335    1.267406
    118          8           0       14.772900   -1.093494    1.457690
    119          6           0       12.448308   -2.242741    1.202146
    120          6           0       12.679670   -3.240981    0.087007
    121          8           0       12.787671   -2.863244   -1.096422
    122          8           0       12.928129   -4.528500    0.564476
    123          6           0       13.555380   -5.379469   -0.439997
    124          1           0        5.534700   -2.308561    0.369109
    125          1           0        5.566236    3.800672   -1.199850
    126          1           0       11.754443    4.206518    0.188975
    127          1           0       10.027528   -4.028719    0.505876
    128          1           0        7.474491   -3.913885    1.860212
    129          1           0        8.188069   -4.941088   -0.610608
    130          1           0        7.076187   -3.643578   -0.832310
    131          1           0        6.676342   -5.115629    0.265323
    132          1           0        8.934229   -4.056988    3.242929
    133          1           0       10.396778   -3.144089    3.235703
    134          1           0       11.704532   -4.995256    3.102376
    135          1           0       10.783825   -5.670687    1.764214
    136          1           0        2.837758   -1.219521   -1.449536
    137          1           0        2.545157   -0.521259    0.007844
    138          1           0        3.551767   -1.887421    0.078375
    139          1           0        1.622104    1.089038   -1.113674
    140          1           0        2.343984    0.521258   -2.607933
    141          1           0        1.486749    2.150058   -2.627964
    142          1           0        7.281551    5.709080   -0.260778
    143          1           0       10.170651    5.627356   -0.875150
    144          1           0        7.350155    4.865649   -2.859734
    145          1           0        8.791566    5.987976   -2.780253
    146          1           0        7.111124    6.471439   -2.406313
    147          1           0        9.422322    5.137510    1.812704
    148          1           0        8.505044    6.563553    1.378101
    149          1           0       10.124983    7.819921    1.907336
    150          1           0       11.108378    7.254952    0.571076
    151          1           0       11.120292    6.459379    2.279393
    152          1           0       13.774591    3.481958    0.460121
    153          1           0       14.818896    2.211954   -0.108993
    154          1           0       14.638507    2.382928    1.662500
    155          1           0       12.412176   -2.719936    2.181476
    156          1           0       14.592963   -5.645616   -0.243114
    157          1           0       13.508932   -4.981112   -1.453634
    158          1           0       12.977282   -6.303050   -0.455518
 ---------------------------------------------------------------------

 SCF Done:  E(RPBE1PBE) =  -4067.33359058     A.U. after   16 cycles

 Excitation energies and oscillator strengths:

 Excited State   1:      Singlet-A      1.7638 eV  702.93 nm  f=0.0000  <S**2>=0.000
     312 -> 313        0.70704
 This state for optimization and/or second-order correction.
 Total Energy, E(TD-HF/TD-DFT) =  -4067.26877095
 Copying the excited state density for this state as the 1-particle RhoCI density.

 Excited State   2:      Singlet-A      1.8275 eV  678.44 nm  f=0.5046  <S**2>=0.000
     309 -> 315        0.17005
     311 -> 313       -0.23618
     312 -> 314        0.64881

 Excited State   3:      Singlet-A      1.8547 eV  668.48 nm  f=0.2732  <S**2>=0.000
     310 -> 316       -0.15777
     311 -> 313        0.65502
     312 -> 314        0.23276
     311 <- 313       -0.10793

 Excited State   4:      Singlet-A      1.9642 eV  631.22 nm  f=0.0000  <S**2>=0.000
     311 -> 314        0.70705

 Excited State   5:      Singlet-A      2.2730 eV  545.47 nm  f=0.0107  <S**2>=0.000
     309 -> 314        0.57941
     312 -> 315       -0.39799

 The electronic state is 1-A.
 Alpha  occ. eigenvalues --  -46.92911 -46.91686 -19.27141 -19.27026 -19.20868
 Alpha  occ. eigenvalues --  -19.20252 -19.19924 -19.19553 -19.19306 -19.18700
 Alpha  occ. eigenvalues --  -14.41944 -14.41828 -14.41590 -14.41115 -14.39150
 Alpha  occ. eigenvalues --  -14.39030 -14.39020 -14.38940 -10.37637 -10.36962
 Alpha  occ. eigenvalues --  -10.33442 -10.32686 -10.32347 -10.32010 -10.29159
 Alpha  occ. eigenvalues --  -10.29014 -10.29002 -10.28992 -10.28943 -10.28810
 Alpha  occ. eigenvalues --  -10.28706 -10.28676 -10.28547 -10.28132 -10.27890
 Alpha  occ. eigenvalues --  -10.27853 -10.27479 -10.27332 -10.27326 -10.27242
 Alpha  occ. eigenvalues --  -10.26845 -10.26771 -10.26597 -10.26593 -10.26408
 Alpha  occ. eigenvalues --  -10.26375 -10.26309 -10.26275 -10.26246 -10.26183
 Alpha  occ. eigenvalues --  -10.25994 -10.25929 -10.25697 -10.25652 -10.25396
 Alpha  occ. eigenvalues --  -10.25381 -10.25363 -10.25354 -10.25323 -10.25249
 Alpha  occ. eigenvalues --  -10.25109 -10.24959 -10.24864 -10.24765 -10.24500
 Alpha  occ. eigenvalues --  -10.24391 -10.24254 -10.24176 -10.24119 -10.24030
 Alpha  occ. eigenvalues --  -10.23882 -10.23778 -10.23675 -10.23647 -10.23445
 Alpha  occ. eigenvalues --  -10.23361 -10.23279 -10.23178 -10.23027 -10.22960
 Alpha  occ. eigenvalues --  -10.22859 -10.22857 -10.22856 -10.22816 -10.22769
 Alpha  occ. eigenvalues --  -10.22534  -3.14833  -3.13912  -1.87667  -1.87193
 Alpha  occ. eigenvalues --   -1.87055  -1.86734  -1.86270  -1.86162  -1.11038
 Alpha  occ. eigenvalues --   -1.10894  -1.06354  -1.04783  -1.03536  -1.02868
 Alpha  occ. eigenvalues --   -1.02538  -1.02158  -0.98671  -0.98446  -0.97860
 Alpha  occ. eigenvalues --   -0.97684  -0.97462  -0.97119  -0.96402  -0.96356
 Alpha  occ. eigenvalues --   -0.86760  -0.85799  -0.83323  -0.83311  -0.83031
 Alpha  occ. eigenvalues --   -0.82884  -0.82561  -0.82259  -0.81685  -0.81598
 Alpha  occ. eigenvalues --   -0.81481  -0.81434  -0.80270  -0.80045  -0.78772
 Alpha  occ. eigenvalues --   -0.78455  -0.78247  -0.77813  -0.76980  -0.76867
 Alpha  occ. eigenvalues --   -0.76625  -0.75954  -0.75383  -0.75152  -0.74940
 Alpha  occ. eigenvalues --   -0.74422  -0.72652  -0.72467  -0.71954  -0.71800
 Alpha  occ. eigenvalues --   -0.71086  -0.71034  -0.70372  -0.69947  -0.69328
 Alpha  occ. eigenvalues --   -0.69014  -0.66729  -0.66699  -0.66067  -0.65326
 Alpha  occ. eigenvalues --   -0.63305  -0.63238  -0.62679  -0.62410  -0.62075
 Alpha  occ. eigenvalues --   -0.61969  -0.61043  -0.60834  -0.59644  -0.59627
 Alpha  occ. eigenvalues --   -0.59464  -0.59353  -0.59283  -0.59125  -0.58908
 Alpha  occ. eigenvalues --   -0.58775  -0.57025  -0.56838  -0.54757  -0.54502
 Alpha  occ. eigenvalues --   -0.54149  -0.53803  -0.53176  -0.53117  -0.53016
 Alpha  occ. eigenvalues --   -0.52943  -0.52770  -0.52150  -0.51823  -0.51695
 Alpha  occ. eigenvalues --   -0.50712  -0.50603  -0.50172  -0.49815  -0.49770
 Alpha  occ. eigenvalues --   -0.49492  -0.49217  -0.49085  -0.48682  -0.48264
 Alpha  occ. eigenvalues --   -0.48203  -0.48175  -0.48042  -0.47705  -0.47584
 Alpha  occ. eigenvalues --   -0.47407  -0.47271  -0.47155  -0.47083  -0.46679
 Alpha  occ. eigenvalues --   -0.46595  -0.46282  -0.46092  -0.45929  -0.45805
 Alpha  occ. eigenvalues --   -0.45703  -0.45587  -0.45302  -0.45190  -0.45158
 Alpha  occ. eigenvalues --   -0.44987  -0.44727  -0.44618  -0.44115  -0.44010
 Alpha  occ. eigenvalues --   -0.43962  -0.43820  -0.43708  -0.43536  -0.43395
 Alpha  occ. eigenvalues --   -0.43250  -0.43131  -0.42953  -0.42845  -0.42691
 Alpha  occ. eigenvalues --   -0.42689  -0.42599  -0.42504  -0.42259  -0.41783
 Alpha  occ. eigenvalues --   -0.41578  -0.41429  -0.41352  -0.41322  -0.41091
 Alpha  occ. eigenvalues --   -0.41045  -0.41030  -0.40679  -0.40622  -0.40555
 Alpha  occ. eigenvalues --   -0.40309  -0.40252  -0.39977  -0.39592  -0.39438
 Alpha  occ. eigenvalues --   -0.39199  -0.39187  -0.38985  -0.38880  -0.38766
 Alpha  occ. eigenvalues --   -0.38739  -0.38600  -0.38433  -0.38392  -0.38317
 Alpha  occ. eigenvalues --   -0.37929  -0.37892  -0.37805  -0.37730  -0.37717
 Alpha  occ. eigenvalues --   -0.37501  -0.37394  -0.37346  -0.36987  -0.36982
 Alpha  occ. eigenvalues --   -0.36508  -0.36483  -0.36412  -0.36149  -0.35878
 Alpha  occ. eigenvalues --   -0.35759  -0.35565  -0.35426  -0.35235  -0.34952
 Alpha  occ. eigenvalues --   -0.34789  -0.34313  -0.33953  -0.33825  -0.33580
 Alpha  occ. eigenvalues --   -0.33178  -0.33026  -0.32688  -0.32400  -0.32351
 Alpha  occ. eigenvalues --   -0.32218  -0.32162  -0.32111  -0.31404  -0.31269
 Alpha  occ. eigenvalues --   -0.31029  -0.30069  -0.29713  -0.29519  -0.29402
 Alpha  occ. eigenvalues --   -0.29105  -0.28515  -0.28416  -0.27211  -0.26962
 Alpha  occ. eigenvalues --   -0.26246  -0.26090  -0.26071  -0.25753  -0.25605
 Alpha  occ. eigenvalues --   -0.25441  -0.25275  -0.25195  -0.21164  -0.20938
 Alpha  occ. eigenvalues --   -0.18323  -0.18029
 Alpha virt. eigenvalues --   -0.10802  -0.10368  -0.05983  -0.04720  -0.04356
 Alpha virt. eigenvalues --   -0.04161  -0.02109  -0.02078  -0.01584  -0.01025
 Alpha virt. eigenvalues --   -0.00688   0.00306   0.00470   0.00894   0.01410

 Mulliken charges:
               1
     1  Mg  12.000000
     2  C    6.000000
     3  C    6.000000
     4  C    6.000000
     5  C    6.000000
     6  N    7.000000
     7  C    6.000000
     8  C    6.000000
     9  C    6.000000
    10  C    6.000000
    11  C    6.000000
    12  C    6.000000
    13  C    6.000000
    14  H    1.000000
    15  N    7.000000
    16  C    6.000000
    17  C    6.000000
    18  C    6.000000
    19  C    6.000000
    20  C    6.000000
    21  C    6.000000
    22  O    8.000000
    23  C    6.000000
    24  N    7.000000
    25  C    6.000000
    26  C    6.000000
    27  C    6.000000
    28  C    6.000000
    29  C    6.000000
    30  C    6.000000
    31  C    6.000000
    32  N    7.000000
    33  C    6.000000
    34  C    6.000000
    35  C    6.000000
    36  C    6.000000
    37  C    6.000000
    38  C    6.000000
    39  O    8.000000
    40  C    6.000000
    41  C    6.000000
    42  O    8.000000
    43  O    8.000000
    44  C    6.000000
    45  H    1.000000
    46  H    1.000000
    47  H    1.000000
    48  H    1.000000
    49  H    1.000000
    50  H    1.000000
    51  H    1.000000
    52  H    1.000000
    53  H    1.000000
    54  H    1.000000
    55  H    1.000000
    56  H    1.000000
    57  H    1.000000
    58  H    1.000000
    59  H    1.000000
    60  H    1.000000
    61  H    1.000000
    62  H    1.000000
    63  H    1.000000
    64  H    1.000000
    65  H    1.000000
    66  H    1.000000
    67  H    1.000000
    68  H    1.000000
    69  H    1.000000
    70  H    1.000000
    71  H    1.000000
    72  H    1.000000
    73  H    1.000000
    74  H    1.000000
    75  H    1.000000
    76  H    1.000000
    77  H    1.000000
    78  H    1.000000
    79  H    1.000000
    80  Mg  12.000000
    81  C    6.000000
    82  C    6.000000
    83  C    6.000000
    84  C    6.000000
    85  N    7.000000
    86  C    6.000000
    87  C    6.000000
    88  C    6.000000
    89  C    6.000000
    90  C    6.000000
    91  C    6.000000
    92  C    6.000000
    93  H    1.000000
    94  N    7.000000
    95  C    6.000000
    96  C    6.000000
    97  C    6.000000
    98  C    6.000000
    99  C    6.000000
   100  C    6.000000
   101  O    8.000000
   102  C    6.000000
   103  N    7.000000
   104  C    6.000000
   105  C    6.000000
   106  C    6.000000
   107  C    6.000000
   108  C    6.000000
   109  C    6.000000
   110  C    6.000000
   111  N    7.000000
   112  C    6.000000
   113  C    6.000000
   114  C    6.000000
   115  C    6.000000
   116  C    6.000000
   117  C    6.000000
   118  O    8.000000
   119  C    6.000000
   120  C    6.000000
   121  O    8.000000
   122  O    8.000000
   123  C    6.000000
   124  H    1.000000
   125  H    1.000000
   126  H    1.000000
   127  H    1.000000
   128  H    1.000000
   129  H    1.000000
   130  H    1.000000
   131  H    1.000000
   132  H    1.000000
   133  H    1.000000
   134  H    1.000000
   135  H    1.000000
   136  H    1.000000
   137  H    1.000000
   138  H    1.000000
   139  H    1.000000
   140  H    1.000000
   141  H    1.000000
   142  H    1.000000
   143  H    1.000000
   144  H    1.000000
   145  H    1.000000
   146  H    1.000000
   147  H    1.000000
   148  H    1.000000
   149  H    1.000000
   150  H    1.000000
   151  H    1.000000
   152  H    1.000000
   153  H    1.000000
   154  H    1.000000
   155  H    1.000000
   156  H    1.000000
   157  H    1.000000
   158  H    1.000000
 Sum of Mulliken charges = 624.00000

 Dipole moment (field-independent basis, Debye):
    X=             -0.0000    Y=              0.0000    Z=              0.0000  Tot=              0.0000
 Quadrupole moment (field-independent basis, Debye-Ang):
   XX=              0.0001   YY=             -0.0000   ZZ=             -0.0000
   XY=             -0.0000   XZ=             -0.0002   YZ=             -0.0000

 Normal termination of Gaussian 16 at Thu Oct 14 19:35:33 2021.
