 Gaussian 16, Revision A.03,
 Gaussian 16:  ES64L-G16RevA.03 25-Dec-2016

 --------------------------------------------------------
 #p PBE1PBE/Def2SVP td=(nstates=5) density=(transition=1)
 --------------------------------------------------------

 --------------------------------
 TDDFT excited states in gaussian
 --------------------------------
 Symbolic Z-matrix:
 Charge =  0 Multiplicity = 1

                         Standard orientation:
 ---------------------------------------------------------------------
 Center     Atomic      Atomic             Coordinates (Angstroms)
 Number     Number       Type             X           Y           Z
 ---------------------------------------------------------------------
      1         12           0      -12.760220   -0.455203    0.349350
      2          6           0      -13.138420    2.551028   -1.196818
      3          6           0      -11.435628    1.070978    3.133792
      4          6           0      -12.276680   -3.526815    1.688064
      5          6           0      -13.670910   -2.006767   -2.692861
      6          7           0      -12.129849    1.579931    0.813079
      7          6           0      -12.689925    2.634962    0.163255
      8          6           0      -12.605160    3.914155    0.924830
      9          6           0      -11.799507    3.397135    2.226614
     10          6           0      -11.773340    1.911897    2.071942
     11          6           0      -10.328624    4.007865    2.324286
     12          6           0      -14.086141    4.399222    1.285728
     13          6           0      -14.284888    5.887945    1.578669
     14          1           0      -13.133300    6.886639    1.854271
     15          7           0      -12.066896   -1.179825    2.184731
     16          6           0      -11.537008   -0.366929    3.200067
     17          6           0      -11.127563   -1.244081    4.272288
     18          6           0      -11.392761   -2.572053    3.880471
     19          6           0      -11.980761   -2.438915    2.554670
     20          6           0      -10.570079   -0.678441    5.599344
     21          6           0      -11.027330   -3.929500    4.680734
     22          8           0      -11.426620   -5.044575    4.322067
     23          6           0      -10.201443   -3.974279    5.955739
     24          7           0      -13.027748   -2.513559   -0.419796
     25          6           0      -12.708902   -3.578459    0.354098
     26          6           0      -12.687635   -4.872303   -0.458089
     27          6           0      -13.474279   -4.417395   -1.818505
     28          6           0      -13.512932   -2.891543   -1.639903
     29          6           0      -11.261354   -5.568645   -0.635423
     30          6           0      -15.013786   -4.878988   -1.946630
     31          6           0      -15.499798   -5.539819   -3.223441
     32          7           0      -13.358181    0.077213   -1.579851
     33          6           0      -13.675415   -0.615119   -2.687938
     34          6           0      -14.112483    0.326444   -3.765919
     35          6           0      -13.951018    1.589737   -3.149082
     36          6           0      -13.373506    1.352268   -1.877845
     37          6           0      -14.639889    0.069282   -5.133130
     38          6           0      -14.125865    2.965088   -3.431365
     39          8           0      -14.547739    3.530192   -4.461245
     40          6           0      -13.601726    3.659310   -2.176833
     41          6           0      -12.490730    4.507658   -2.543130
     42          8           0      -11.475337    4.257976   -3.113881
     43          8           0      -12.755212    5.754316   -1.983896
     44          6           0      -11.785794    6.910786   -2.094264
     45          1           0      -11.223310    1.487479    4.120258
     46          1           0      -12.027562   -4.511362    2.090249
     47          1           0      -13.771466   -2.402706   -3.704973
     48          1           0      -12.107206    4.792046    0.513662
     49          1           0      -12.323693    3.657383    3.146160
     50          1           0       -9.971089    4.229153    3.329654
     51          1           0      -10.247201    4.851381    1.638927
     52          1           0       -9.654753    3.241016    1.940876
     53          1           0      -14.488067    3.854413    2.140199
     54          1           0      -14.690340    4.129256    0.419237
     55          1           0      -14.975736    5.928664    2.421744
     56          1           0      -14.856560    6.327033    0.761940
     57          1           0      -10.571129    0.409855    5.658817
     58          1           0       -9.562371   -1.078293    5.707278
     59          1           0      -11.171252   -1.103112    6.403632
     60          1           0      -10.840028   -3.512770    6.708036
     61          1           0       -9.385553   -3.251230    5.950844
     62          1           0       -9.770879   -4.965532    6.096152
     63          1           0      -13.331256   -5.590765    0.050920
     64          1           0      -12.947152   -4.763383   -2.707839
     65          1           0      -11.000371   -5.674394   -1.688686
     66          1           0      -11.256173   -6.540914   -0.144029
     67          1           0      -10.473305   -4.941585   -0.217758
     68          1           0      -15.701288   -4.070305   -1.699125
     69          1           0      -15.183636   -5.582525   -1.132149
     70          1           0      -16.332470   -4.937018   -3.584243
     71          1           0      -15.786721   -6.581394   -3.081574
     72          1           0      -14.728876   -5.464261   -3.991576
     73          1           0      -14.793161   -0.982102   -5.375880
     74          1           0      -13.960286    0.458783   -5.891551
     75          1           0      -15.596343    0.582148   -5.232454
     76          1           0      -14.365658    4.269152   -1.693666
     77          1           0      -10.876387    6.596126   -2.606647
     78          1           0      -11.480648    7.228018   -1.096196
     79          1           0      -12.318425    7.681423   -2.651446
     80         12           0       12.351873   -0.738969   -0.341320
     81          6           0       14.272488    2.116488   -0.201593
     82          6           0        9.601417    1.174268    0.900774
     83          6           0       10.559802   -3.476567   -0.103186
     84          6           0       15.111365   -2.595299   -1.391454
     85          7           0       12.062727    1.402036    0.246972
     86          6           0       12.970668    2.380676    0.187953
     87          6           0       12.283289    3.732074    0.569928
     88          6           0       10.813293    3.325250    1.044119
     89          6           0       10.826082    1.811543    0.756107
     90          6           0       10.502529    3.465058    2.521962
     91          6           0       12.332822    4.811951   -0.521432
     92          6           0       12.858537    6.128664    0.024998
     93          1           0       12.461541    7.467139   -0.614529
     94          7           0       10.332081   -1.068475    0.236821
     95          6           0        9.367195   -0.197520    0.653932
     96          6           0        8.141321   -0.826616    0.869293
     97          6           0        8.390580   -2.233962    0.706258
     98          6           0        9.818688   -2.321336    0.243191
     99          6           0        6.865134   -0.097409    1.263600
    100          6           0        7.462632   -3.407232    0.975884
    101          8           0        7.935458   -4.559561    0.932032
    102          6           0        6.063984   -3.215816    1.400725
    103          7           0       12.790398   -2.686993   -0.727215
    104          6           0       11.857613   -3.698119   -0.620842
    105          6           0       12.406130   -5.133649   -0.960520
    106          6           0       13.786686   -4.726538   -1.632090
    107          6           0       13.927008   -3.251201   -1.214704
    108          6           0       12.602451   -6.229346    0.160344
    109          6           0       14.020353   -5.081290   -3.170564
    110          6           0       13.337283   -4.171826   -4.157477
    111          7           0       14.301073   -0.425293   -0.598626
    112          6           0       15.340373   -1.231527   -1.022278
    113          6           0       16.554820   -0.530297   -1.119098
    114          6           0       16.154723    0.781825   -0.841138
    115          6           0       14.764676    0.821921   -0.528329
    116          6           0       17.794587   -1.168403   -1.582508
    117          6           0       16.736340    2.055303   -0.655599
    118          8           0       17.932267    2.350926   -0.697928
    119          6           0       15.528362    3.048400   -0.243863
    120          6           0       15.835103    3.663907    1.035308
    121          8           0       15.781942    3.139504    2.124239
    122          8           0       16.307168    4.891435    0.856012
    123          6           0       16.785621    5.625345    1.988385
    124          1           0        8.782446    1.755318    1.328872
    125          1           0       10.094451   -4.463662   -0.073159
    126          1           0       15.949585   -3.213823   -1.719122
    127          1           0       12.871649    4.001820    1.446372
    128          1           0       10.147976    4.032880    0.548171
    129          1           0       11.291737    3.936090    3.108716
    130          1           0       10.371328    2.481929    2.973210
    131          1           0        9.520107    3.920146    2.651401
    132          1           0       11.386372    4.996476   -1.029947
    133          1           0       12.987766    4.448274   -1.312846
    134          1           0       13.937039    6.106391   -0.135473
    135          1           0       12.576346    6.148678    1.077478
    136          1           0        6.965963    0.981924    1.149233
    137          1           0        6.709463   -0.220377    2.335622
    138          1           0        5.995714   -0.534781    0.774191
    139          1           0        5.685083   -4.107873    1.900767
    140          1           0        5.472529   -3.094960    0.492629
    141          1           0        5.985689   -2.363109    2.074727
    142          1           0       11.874361   -5.593501   -1.794113
    143          1           0       14.576654   -5.329170   -1.185624
    144          1           0       12.277083   -5.796752    1.105618
    145          1           0       13.669628   -6.347577    0.352267
    146          1           0       12.146754   -7.208877    0.012701
    147          1           0       13.563101   -6.058557   -3.323446
    148          1           0       15.067014   -5.212659   -3.442391
    149          1           0       13.968557   -4.140892   -5.044844
    150          1           0       13.052274   -3.156823   -3.883487
    151          1           0       12.377613   -4.635292   -4.386294
    152          1           0       17.725853   -1.989537   -2.295581
    153          1           0       18.530714   -1.399601   -0.813541
    154          1           0       18.276169   -0.331524   -2.087649
    155          1           0       15.456232    3.817674   -1.012461
    156          1           0       15.997484    6.205134    2.470145
    157          1           0       17.506693    6.350350    1.611312
    158          1           0       17.208152    4.939320    2.722665
 ---------------------------------------------------------------------

 SCF Done:  E(RPBE1PBE) =  -4067.39133067     A.U. after   16 cycles

 Excitation energies and oscillator strengths:

 Excited State   1:      Singlet-A      1.8533 eV  669.00 nm  f=0.0000  <S**2>=0.000
     312 -> 313        0.70710
 This state for optimization and/or second-order correction.
 Total Energy, E(TD-HF/TD-DFT) =  -4067.32322440
 Copying the excited state density for this state as the 1-particle RhoCI density.

 Excited State   2:      Singlet-A      1.8678 eV  663.79 nm  f=0.4074  <S**2>=0.000
     309 -> 316        0.16495
     311 -> 313        0.69094
     311 <- 313       -0.11073

 Excited State   3:      Singlet-A      1.8925 eV  655.13 nm  f=0.3790  <S**2>=0.000
     310 -> 315        0.18577
     312 -> 314        0.68731
     312 <- 314       -0.10166

 Excited State   4:      Singlet-A      2.0429 eV  606.91 nm  f=0.0000  <S**2>=0.000
     311 -> 314        0.70710

 Excited State   5:      Singlet-A      2.2346 eV  554.83 nm  f=0.0865  <S**2>=0.000
     310 -> 314        0.65040
     312 -> 315       -0.26649

 The electronic state is 1-A.
 Alpha  occ. eigenvalues --  -46.92847 -46.91109 -19.25423 -19.24402 -19.19797
 Alpha  occ. eigenvalues --  -19.19565 -19.19014 -19.18917 -19.18810 -19.18426
 Alpha  occ. eigenvalues --  -14.42073 -14.41845 -14.41683 -14.41214 -14.39339
 Alpha  occ. eigenvalues --  -14.39301 -14.39025 -14.38678 -10.35653 -10.35229
 Alpha  occ. eigenvalues --  -10.33565 -10.31948 -10.31704 -10.31588 -10.29472
 Alpha  occ. eigenvalues --  -10.29227 -10.29174 -10.28928 -10.28908 -10.28518
 Alpha  occ. eigenvalues --  -10.28419 -10.28410 -10.28391 -10.28065 -10.27947
 Alpha  occ. eigenvalues --  -10.27791 -10.27677 -10.27565 -10.26995 -10.26804
 Alpha  occ. eigenvalues --  -10.26798 -10.26579 -10.26456 -10.26396 -10.26396
 Alpha  occ. eigenvalues --  -10.26208 -10.26187 -10.26140 -10.26119 -10.26071
 Alpha  occ. eigenvalues --  -10.25993 -10.25908 -10.25898 -10.25885 -10.25801
 Alpha  occ. eigenvalues --  -10.25754 -10.25612 -10.25508 -10.25482 -10.25416
 Alpha  occ. eigenvalues --  -10.25205 -10.25156 -10.25146 -10.25066 -10.24999
 Alpha  occ. eigenvalues --  -10.24977 -10.24835 -10.24452 -10.24168 -10.24080
 Alpha  occ. eigenvalues --  -10.24042 -10.23924 -10.23833 -10.23821 -10.23784
 Alpha  occ. eigenvalues --  -10.23664 -10.23654 -10.23633 -10.23603 -10.23531
 Alpha  occ. eigenvalues --  -10.23230 -10.23061 -10.22833 -10.22457 -10.22443
 Alpha  occ. eigenvalues --  -10.22382  -3.14839  -3.13468  -1.87700  -1.87195
 Alpha  occ. eigenvalues --   -1.87073  -1.86309  -1.85861  -1.85696  -1.12700
 Alpha  occ. eigenvalues --   -1.10391  -1.04390  -1.03657  -1.03169  -1.03032
 Alpha  occ. eigenvalues --   -1.02578  -1.02063  -1.00268  -0.99292  -0.99174
 Alpha  occ. eigenvalues --   -0.98374  -0.98366  -0.97940  -0.97350  -0.97216
 Alpha  occ. eigenvalues --   -0.87883  -0.86452  -0.83673  -0.83032  -0.83019
 Alpha  occ. eigenvalues --   -0.82622  -0.82579  -0.81952  -0.81911  -0.81897
 Alpha  occ. eigenvalues --   -0.81404  -0.81255  -0.81075  -0.80596  -0.78872
 Alpha  occ. eigenvalues --   -0.78719  -0.78134  -0.77808  -0.77235  -0.76692
 Alpha  occ. eigenvalues --   -0.76530  -0.75888  -0.75563  -0.75520  -0.74980
 Alpha  occ. eigenvalues --   -0.74738  -0.72824  -0.72610  -0.71875  -0.71669
 Alpha  occ. eigenvalues --   -0.71453  -0.71230  -0.70548  -0.70280  -0.69636
 Alpha  occ. eigenvalues --   -0.69624  -0.67929  -0.67096  -0.66518  -0.65894
 Alpha  occ. eigenvalues --   -0.64005  -0.63790  -0.63312  -0.63072  -0.62684
 Alpha  occ. eigenvalues --   -0.62176  -0.61478  -0.60506  -0.59862  -0.59779
 Alpha  occ. eigenvalues --   -0.59735  -0.59437  -0.59151  -0.59140  -0.58900
 Alpha  occ. eigenvalues --   -0.58876  -0.56907  -0.56396  -0.55141  -0.54951
 Alpha  occ. eigenvalues --   -0.54599  -0.54526  -0.53865  -0.53589  -0.53450
 Alpha  occ. eigenvalues --   -0.53168  -0.52960  -0.52840  -0.52380  -0.52216
 Alpha  occ. eigenvalues --   -0.51139  -0.50731  -0.50617  -0.50219  -0.49871
 Alpha  occ. eigenvalues --   -0.49672  -0.49171  -0.48930  -0.48727  -0.48405
 Alpha  occ. eigenvalues --   -0.48127  -0.47806  -0.47761  -0.47564  -0.47414
 Alpha  occ. eigenvalues --   -0.47315  -0.46924  -0.46803  -0.46792  -0.46699
 Alpha  occ. eigenvalues --   -0.46651  -0.46393  -0.46295  -0.46220  -0.46055
 Alpha  occ. eigenvalues --   -0.45882  -0.45446  -0.45191  -0.44935  -0.44799
 Alpha  occ. eigenvalues --   -0.44525  -0.44522  -0.44297  -0.44269  -0.44120
 Alpha  occ. eigenvalues --   -0.44084  -0.43907  -0.43788  -0.43755  -0.43618
 Alpha  occ. eigenvalues --   -0.43555  -0.43085  -0.43008  -0.42856  -0.42832
 Alpha  occ. eigenvalues --   -0.42672  -0.42451  -0.42376  -0.42018  -0.42013
 Alpha  occ. eigenvalues --   -0.41683  -0.41640  -0.41362  -0.41249  -0.41235
 Alpha  occ. eigenvalues --   -0.41126  -0.41017  -0.40940  -0.40809  -0.40423
 Alpha  occ. eigenvalues --   -0.40243  -0.40216  -0.39957  -0.39884  -0.39709
 Alpha  occ. eigenvalues --   -0.39504  -0.39323  -0.39221  -0.39218  -0.39097
 Alpha  occ. eigenvalues --   -0.38844  -0.38818  -0.38681  -0.38599  -0.38415
 Alpha  occ. eigenvalues --   -0.38293  -0.38143  -0.38077  -0.37587  -0.37534
 Alpha  occ. eigenvalues --   -0.37390  -0.37208  -0.36874  -0.36720  -0.36543
 Alpha  occ. eigenvalues --   -0.36346  -0.36330  -0.36225  -0.36114  -0.36048
 Alpha  occ. eigenvalues --   -0.35971  -0.35951  -0.35867  -0.35741  -0.35404
 Alpha  occ. eigenvalues --   -0.35152  -0.34749  -0.34409  -0.34140  -0.33818
 Alpha  occ. eigenvalues --   -0.33468  -0.33129  -0.32869  -0.32747  -0.32628
 Alpha  occ. eigenvalues --   -0.32213  -0.31904  -0.31661  -0.31630  -0.31352
 Alpha  occ. eigenvalues --   -0.31175  -0.31107  -0.29489  -0.29449  -0.29412
 Alpha  occ. eigenvalues --   -0.28877  -0.28745  -0.28476  -0.27114  -0.26879
 Alpha  occ. eigenvalues --   -0.26176  -0.26064  -0.25869  -0.25749  -0.25546
 Alpha  occ. eigenvalues --   -0.25505  -0.25438  -0.25278  -0.21101  -0.20862
 Alpha  occ. eigenvalues --   -0.19100  -0.18846
 Alpha virt. eigenvalues --   -0.11505  -0.11070  -0.05259  -0.05041  -0.04268
 Alpha virt. eigenvalues --   -0.03721  -0.02193  -0.01914  -0.00158   0.00245
 Alpha virt. eigenvalues --    0.00705   0.01232   0.01280   0.01534   0.01763

 Mulliken charges:
               1
     1  Mg  12.000000
     2  C    6.000000
     3  C    6.000000
     4  C    6.000000
     5  C    6.000000
     6  N    7.000000
     7  C    6.000000
     8  C    6.000000
     9  C    6.000000
    10  C    6.000000
    11  C    6.000000
    12  C    6.000000
    13  C    6.000000
    14  H    1.000000
    15  N    7.000000
    16  C    6.000000
    17  C    6.000000
    18  C    6.000000
    19  C    6.000000
    20  C    6.000000
    21  C    6.000000
    22  O    8.000000
    23  C    6.000000
    24  N    7.000000
    25  C    6.000000
    26  C    6.000000
    27  C    6.000000
    28  C    6.000000
    29  C    6.000000
    30  C    6.000000
    31  C    6.000000
    32  N    7.000000
    33  C    6.000000
    34  C    6.000000
    35  C    6.000000
    36  C    6.000000
    37  C    6.000000
    38  C    6.000000
    39  O    8.000000
    40  C    6.000000
    41  C    6.000000
    42  O    8.000000
    43  O    8.000000
    44  C    6.000000
    45  H    1.000000
    46  H    1.000000
    47  H    1.000000
    48  H    1.000000
    49  H    1.000000
    50  H    1.000000
    51  H    1.000000
    52  H    1.000000
    53  H    1.000000
    54  H    1.000000
    55  H    1.000000
    56  H    1.000000
    57  H    1.000000
    58  H    1.000000
    59  H    1.000000
    60  H    1.000000
    61  H    1.000000
    62  H    1.000000
    63  H    1.000000
    64  H    1.000000
    65  H    1.000000
    66  H    1.000000
    67  H    1.000000
    68  H    1.000000
    69  H    1.000000
    70  H    1.000000
    71  H    1.000000
    72  H    1.000000
    73  H    1.000000
    74  H    1.000000
    75  H    1.000000
    76  H    1.000000
    77  H    1.000000
    78  H    1.000000
    79  H    1.000000
    80  Mg  12.000000
    81  C    6.000000
    82  C    6.000000
    83  C    6.000000
    84  C    6.000000
    85  N    7.000000
    86  C    6.000000
    87  C    6.000000
    88  C    6.000000
    89  C    6.000000
    90  C    6.000000
    91  C    6.000000
    92  C    6.000000
    93  H    1.000000
    94  N    7.000000
    95  C    6.000000
    96  C    6.000000
    97  C    6.000000
    98  C    6.000000
    99  C    6.000000
   100  C    6.000000
   101  O    8.000000
   102  C    6.000000
   103  N    7.000000
   104  C    6.000000
   105  C    6.000000
   106  C    6.000000
   107  C    6.000000
   108  C    6.000000
   109  C    6.000000
   110  C    6.000000
   111  N    7.000000
   112  C    6.000000
   113  C    6.000000
   114  C    6.000000
   115  C    6.000000
   116  C    6.000000
   117  C    6.000000
   118  O    8.000000
   119  C    6.000000
   120  C    6.000000
   121  O    8.000000
   122  O    8.000000
   123  C    6.000000
   124  H    1.000000
   125  H    1.000000
   126  H    1.000000
   127  H    1.000000
   128  H    1.000000
   129  H    1.000000
   130  H    1.000000
   131  H    1.000000
   132  H    1.000000
   133  H    1.000000
   134  H    1.000000
   135  H    1.000000
   136  H    1.000000
   137  H    1.000000
   138  H    1.000000
   139  H    1.000000
   140  H    1.000000
   141  H    1.000000
   142  H    1.000000
   143  H    1.000000
   144  H    1.000000
   145  H    1.000000
   146  H    1.000000
   147  H    1.000000
   148  H    1.000000
   149  H    1.000000
   150  H    1.000000
   151  H    1.000000
   152  H    1.000000
   153  H    1.000000
   154  H    1.000000
   155  H    1.000000
   156  H    1.000000
   157  H    1.000000
   158  H    1.000000
 Sum of Mulliken charges = 624.00000

 Dipole moment (field-independent basis, Debye):
    X=              0.0000    Y=              0.0000    Z=             -0.0000  Tot=              0.0000
 Quadrupole moment (field-independent basis, Debye-Ang):
   XX=              0.0000   YY=             -0.0000   ZZ=             -0.0000
   XY=              0.0000   XZ=              0.0000   YZ=              0.0000

 Normal termination of Gaussian 16 at Thu Oct 14 19:04:53 2021.
