 Gaussian 16, Revision A.03,
 Gaussian 16:  ES64L-G16RevA.03 25-Dec-2016

 --------------------------------------------------------
 #p PBE1PBE/Def2SVP td=(nstates=5) density=(transition=1)
 --------------------------------------------------------

 --------------------------------
 TDDFT excited states in gaussian
 --------------------------------
 Symbolic Z-matrix:
 Charge =  0 Multiplicity = 1

                         Standard orientation:
 ---------------------------------------------------------------------
 Center     Atomic      Atomic             Coordinates (Angstroms)
 Number     Number       Type             X           Y           Z
 ---------------------------------------------------------------------
      1         12           0      -23.916516   -0.655354    0.096984
      2          6           0      -22.774272    2.425779   -1.196123
      3          6           0      -24.385000    0.809214    3.148824
      4          6           0      -24.309924   -3.675382    1.359818
      5          6           0      -22.931047   -2.157657   -2.962066
      6          7           0      -23.709955    1.433032    0.826982
      7          6           0      -23.257772    2.459061    0.133464
      8          6           0      -23.598502    3.730979    0.888795
      9          6           0      -23.683581    3.247414    2.387695
     10          6           0      -23.938438    1.713946    2.139298
     11          6           0      -22.391792    3.649657    3.195922
     12          6           0      -24.967190    4.324237    0.466654
     13          6           0      -25.182941    5.866196    0.797891
     14          1           0      -24.118372    6.696273    1.520265
     15          7           0      -24.486487   -1.309392    1.908075
     16          6           0      -24.720484   -0.555320    3.086529
     17          6           0      -25.204149   -1.479271    4.138905
     18          6           0      -25.098659   -2.821162    3.624097
     19          6           0      -24.617076   -2.694007    2.231437
     20          6           0      -25.695041   -1.033642    5.471028
     21          6           0      -25.421640   -4.236456    4.243409
     22          8           0      -25.357206   -5.301072    3.613752
     23          6           0      -25.690662   -4.322358    5.717853
     24          7           0      -23.545147   -2.673573   -0.662978
     25          6           0      -23.836850   -3.740804    0.032063
     26          6           0      -23.645497   -5.046907   -0.686679
     27          6           0      -23.183349   -4.572650   -2.109285
     28          6           0      -23.306186   -3.023236   -1.956380
     29          6           0      -22.745507   -6.003718    0.100745
     30          6           0      -24.040778   -5.082098   -3.260989
     31          6           0      -23.282742   -5.514446   -4.567000
     32          7           0      -23.081577   -0.048143   -1.811636
     33          6           0      -22.780659   -0.785879   -2.973336
     34          6           0      -22.437857    0.121756   -4.013643
     35          6           0      -22.240836    1.376703   -3.354031
     36          6           0      -22.683505    1.234661   -2.063317
     37          6           0      -22.360112   -0.210335   -5.476214
     38          6           0      -21.938168    2.824878   -3.452136
     39          8           0      -21.558497    3.480002   -4.400356
     40          6           0      -22.040038    3.446469   -1.978694
     41          6           0      -22.465163    4.877181   -2.037226
     42          8           0      -23.493238    5.299786   -2.477834
     43          8           0      -21.443140    5.733448   -1.586530
     44          6           0      -21.390003    7.078526   -2.197587
     45          1           0      -24.372910    1.154603    4.185101
     46          1           0      -24.549373   -4.704420    1.633656
     47          1           0      -22.709301   -2.643174   -3.914801
     48          1           0      -22.825147    4.423420    0.556472
     49          1           0      -24.544932    3.677715    2.899700
     50          1           0      -21.687679    4.169799    2.547341
     51          1           0      -21.913209    2.691450    3.398274
     52          1           0      -22.571996    4.303379    4.049404
     53          1           0      -25.695456    3.741811    1.032499
     54          1           0      -25.086338    4.125378   -0.598349
     55          1           0      -26.110247    5.892037    1.372221
     56          1           0      -25.411683    6.324481   -0.164577
     57          1           0      -25.870731    0.027331    5.645021
     58          1           0      -25.000948   -1.284076    6.272798
     59          1           0      -26.657235   -1.536535    5.571038
     60          1           0      -26.734106   -4.163040    5.989361
     61          1           0      -25.013469   -3.540264    6.063331
     62          1           0      -25.323209   -5.299025    6.031619
     63          1           0      -24.665016   -5.430651   -0.722119
     64          1           0      -22.154373   -4.836120   -2.350909
     65          1           0      -22.053552   -5.502597    0.778333
     66          1           0      -22.139050   -6.506155   -0.651790
     67          1           0      -23.311647   -6.729302    0.685211
     68          1           0      -24.767494   -4.331557   -3.571449
     69          1           0      -24.680686   -5.832537   -2.797053
     70          1           0      -22.225122   -5.255721   -4.518937
     71          1           0      -23.749640   -4.925570   -5.356239
     72          1           0      -23.333709   -6.556416   -4.884620
     73          1           0      -21.752868   -1.114388   -5.523941
     74          1           0      -21.886508    0.555030   -6.091316
     75          1           0      -23.350707   -0.470091   -5.850866
     76          1           0      -21.031871    3.553132   -1.579570
     77          1           0      -21.590131    7.808162   -1.412793
     78          1           0      -22.093544    7.186696   -3.023808
     79          1           0      -20.368930    7.183805   -2.564142
     80         12           0       24.024943   -0.621623    0.313869
     81          6           0       21.821618    1.991216    1.049105
     82          6           0       26.384170    1.751966   -0.526877
     83          6           0       25.949103   -3.076493   -1.072596
     84          6           0       21.368898   -2.830300    0.559128
     85          7           0       24.068683    1.565054    0.371812
     86          6           0       23.149233    2.381666    0.901973
     87          6           0       23.629261    3.821245    1.137719
     88          6           0       25.048719    3.791316    0.451679
     89          6           0       25.270186    2.209539    0.129096
     90          6           0       25.246925    4.671475   -0.801209
     91          6           0       23.649779    4.254578    2.603709
     92          6           0       23.496713    5.774987    2.790804
     93          1           0       23.370478    6.675057    1.553533
     94          7           0       25.939734   -0.699719   -0.561107
     95          6           0       26.804803    0.399824   -0.766125
     96          6           0       28.045404   -0.096005   -1.327452
     97          6           0       27.914853   -1.515980   -1.559717
     98          6           0       26.588781   -1.835690   -1.033445
     99          6           0       29.234014    0.809110   -1.500208
    100          6           0       28.980498   -2.582265   -2.079127
    101          8           0       28.785720   -3.773444   -2.094812
    102          6           0       30.292203   -2.025374   -2.588400
    103          7           0       23.679192   -2.616653   -0.268005
    104          6           0       24.625654   -3.453587   -0.782632
    105          6           0       24.084024   -4.917332   -0.979567
    106          6           0       22.679061   -4.795654   -0.391823
    107          6           0       22.575377   -3.328336   -0.020552
    108          6           0       24.165258   -5.647629   -2.380379
    109          6           0       22.501102   -5.725001    0.831679
    110          6           0       23.011466   -5.250218    2.210270
    111          7           0       22.004620   -0.556419    0.863302
    112          6           0       21.040788   -1.529546    0.920062
    113          6           0       19.792086   -0.995457    1.349969
    114          6           0       20.039102    0.449077    1.417123
    115          6           0       21.329857    0.623960    1.100498
    116          6           0       18.506269   -1.635117    1.636945
    117          6           0       19.427079    1.759712    1.586364
    118          8           0       18.285113    2.062168    1.948647
    119          6           0       20.534299    2.832652    1.368489
    120          6           0       20.175659    3.763894    0.303692
    121          8           0       20.250768    3.546918   -0.901099
    122          8           0       19.524948    4.841837    0.849521
    123          6           0       18.700548    5.711639   -0.011806
    124          1           0       27.056254    2.571226   -0.791428
    125          1           0       26.616151   -3.898228   -1.341284
    126          1           0       20.554165   -3.536689    0.731184
    127          1           0       23.066540    4.535162    0.536674
    128          1           0       25.869126    3.964455    1.147222
    129          1           0       26.137481    5.227059   -0.507915
    130          1           0       24.397720    5.339964   -0.940874
    131          1           0       25.372517    4.050749   -1.688437
    132          1           0       24.550151    3.919526    3.117239
    133          1           0       22.831789    3.780383    3.146711
    134          1           0       24.406473    5.998158    3.348532
    135          1           0       22.701780    6.020178    3.496572
    136          1           0       28.859648    1.816799   -1.319526
    137          1           0       29.623619    0.694503   -2.511953
    138          1           0       30.051609    0.575540   -0.816589
    139          1           0       30.282523   -1.548708   -3.569143
    140          1           0       31.028596   -2.828118   -2.550762
    141          1           0       30.536664   -1.294955   -1.817229
    142          1           0       24.760819   -5.470843   -0.329063
    143          1           0       21.989314   -5.068655   -1.189643
    144          1           0       23.237713   -6.119660   -2.702181
    145          1           0       24.884834   -6.461199   -2.294317
    146          1           0       24.554277   -4.930448   -3.103776
    147          1           0       22.983675   -6.660784    0.552271
    148          1           0       21.428986   -5.919095    0.874828
    149          1           0       23.472316   -6.135401    2.647901
    150          1           0       22.212171   -4.944220    2.884855
    151          1           0       23.672446   -4.385079    2.171553
    152          1           0       18.101661   -1.171748    2.536091
    153          1           0       18.537316   -2.716246    1.772550
    154          1           0       17.770724   -1.341605    0.887777
    155          1           0       20.622689    3.318856    2.339916
    156          1           0       18.748097    5.416969   -1.060719
    157          1           0       19.100047    6.723412    0.061817
    158          1           0       17.716311    5.562880    0.430924
 ---------------------------------------------------------------------

 SCF Done:  E(RPBE1PBE) =  -4067.37961950     A.U. after   17 cycles

 Excitation energies and oscillator strengths:

 Excited State   1:      Singlet-A      1.8894 eV  656.20 nm  f=0.3650  <S**2>=0.000
     309 -> 315       -0.18733
     312 -> 314        0.68563
 This state for optimization and/or second-order correction.
 Total Energy, E(TD-HF/TD-DFT) =  -4067.31018480
 Copying the excited state density for this state as the 1-particle RhoCI density.

 Excited State   2:      Singlet-A      1.9917 eV  622.50 nm  f=0.0000  <S**2>=0.000
     312 -> 313        0.70711

 Excited State   3:      Singlet-A      2.0635 eV  600.83 nm  f=0.0000  <S**2>=0.000
     311 -> 314        0.70711

 Excited State   4:      Singlet-A      2.1350 eV  580.72 nm  f=0.0934  <S**2>=0.000
     309 -> 314        0.65946
     312 -> 315        0.23136

 Excited State   5:      Singlet-A      2.4529 eV  505.46 nm  f=0.0000  <S**2>=0.000
     309 -> 313        0.70711

 The electronic state is 1-A.
 Alpha  occ. eigenvalues --  -46.91918 -46.91663 -19.24552 -19.24048 -19.20178
 Alpha  occ. eigenvalues --  -19.20068 -19.19863 -19.19205 -19.19000 -19.18896
 Alpha  occ. eigenvalues --  -14.41698 -14.41469 -14.41461 -14.41118 -14.39291
 Alpha  occ. eigenvalues --  -14.39086 -14.37918 -14.37896 -10.35676 -10.35652
 Alpha  occ. eigenvalues --  -10.33608 -10.33265 -10.32285 -10.32264 -10.29636
 Alpha  occ. eigenvalues --  -10.28786 -10.28597 -10.28595 -10.28446 -10.28438
 Alpha  occ. eigenvalues --  -10.28390 -10.28186 -10.28160 -10.28028 -10.27983
 Alpha  occ. eigenvalues --  -10.27977 -10.27834 -10.27759 -10.27513 -10.26597
 Alpha  occ. eigenvalues --  -10.26486 -10.26377 -10.26257 -10.26224 -10.25975
 Alpha  occ. eigenvalues --  -10.25931 -10.25920 -10.25870 -10.25839 -10.25777
 Alpha  occ. eigenvalues --  -10.25764 -10.25590 -10.25521 -10.25515 -10.25497
 Alpha  occ. eigenvalues --  -10.25470 -10.25427 -10.25412 -10.25245 -10.25229
 Alpha  occ. eigenvalues --  -10.25164 -10.25086 -10.24803 -10.24720 -10.24584
 Alpha  occ. eigenvalues --  -10.24569 -10.24343 -10.24138 -10.23985 -10.23923
 Alpha  occ. eigenvalues --  -10.23894 -10.23812 -10.23652 -10.23557 -10.23461
 Alpha  occ. eigenvalues --  -10.23461 -10.23453 -10.23378 -10.23319 -10.23312
 Alpha  occ. eigenvalues --  -10.23247 -10.23238 -10.22878 -10.22859 -10.22566
 Alpha  occ. eigenvalues --  -10.22559  -3.13962  -3.13768  -1.86814  -1.86609
 Alpha  occ. eigenvalues --   -1.86335  -1.86181  -1.86138  -1.85997  -1.10050
 Alpha  occ. eigenvalues --   -1.09845  -1.06258  -1.04863  -1.04584  -1.03653
 Alpha  occ. eigenvalues --   -1.01945  -1.01456  -0.99688  -0.99111  -0.99040
 Alpha  occ. eigenvalues --   -0.97974  -0.97144  -0.96663  -0.95628  -0.95276
 Alpha  occ. eigenvalues --   -0.86468  -0.86349  -0.83556  -0.83451  -0.83085
 Alpha  occ. eigenvalues --   -0.83043  -0.82445  -0.81980  -0.81599  -0.81474
 Alpha  occ. eigenvalues --   -0.81396  -0.80713  -0.80410  -0.80053  -0.78480
 Alpha  occ. eigenvalues --   -0.78173  -0.78106  -0.77688  -0.76780  -0.76587
 Alpha  occ. eigenvalues --   -0.76087  -0.75916  -0.75323  -0.75050  -0.74537
 Alpha  occ. eigenvalues --   -0.74210  -0.72712  -0.72444  -0.71501  -0.71418
 Alpha  occ. eigenvalues --   -0.71134  -0.70791  -0.70210  -0.69759  -0.69407
 Alpha  occ. eigenvalues --   -0.69383  -0.67006  -0.66896  -0.66142  -0.65537
 Alpha  occ. eigenvalues --   -0.64201  -0.64161  -0.62983  -0.62848  -0.62118
 Alpha  occ. eigenvalues --   -0.61756  -0.60959  -0.60452  -0.60411  -0.59583
 Alpha  occ. eigenvalues --   -0.59254  -0.59119  -0.59048  -0.58942  -0.58285
 Alpha  occ. eigenvalues --   -0.58051  -0.55983  -0.55725  -0.54507  -0.54285
 Alpha  occ. eigenvalues --   -0.53750  -0.53665  -0.53600  -0.53098  -0.52845
 Alpha  occ. eigenvalues --   -0.52663  -0.52304  -0.52199  -0.51977  -0.51492
 Alpha  occ. eigenvalues --   -0.50915  -0.50406  -0.50038  -0.49987  -0.49735
 Alpha  occ. eigenvalues --   -0.49688  -0.49191  -0.48765  -0.48249  -0.47816
 Alpha  occ. eigenvalues --   -0.47767  -0.47731  -0.47656  -0.47454  -0.47374
 Alpha  occ. eigenvalues --   -0.47256  -0.46779  -0.46771  -0.46691  -0.46615
 Alpha  occ. eigenvalues --   -0.46402  -0.46308  -0.46253  -0.45929  -0.45712
 Alpha  occ. eigenvalues --   -0.45509  -0.45346  -0.45143  -0.45038  -0.44838
 Alpha  occ. eigenvalues --   -0.44762  -0.44509  -0.44204  -0.44094  -0.44016
 Alpha  occ. eigenvalues --   -0.43938  -0.43709  -0.43661  -0.43606  -0.43164
 Alpha  occ. eigenvalues --   -0.42966  -0.42943  -0.42896  -0.42761  -0.42666
 Alpha  occ. eigenvalues --   -0.42464  -0.42317  -0.42157  -0.41945  -0.41782
 Alpha  occ. eigenvalues --   -0.41754  -0.41425  -0.41066  -0.41037  -0.40994
 Alpha  occ. eigenvalues --   -0.40904  -0.40868  -0.40521  -0.40385  -0.40377
 Alpha  occ. eigenvalues --   -0.40296  -0.39998  -0.39850  -0.39779  -0.39746
 Alpha  occ. eigenvalues --   -0.39399  -0.39123  -0.39058  -0.38649  -0.38637
 Alpha  occ. eigenvalues --   -0.38523  -0.38447  -0.38235  -0.38024  -0.37998
 Alpha  occ. eigenvalues --   -0.37955  -0.37880  -0.37637  -0.37513  -0.37460
 Alpha  occ. eigenvalues --   -0.37389  -0.37244  -0.36973  -0.36852  -0.36843
 Alpha  occ. eigenvalues --   -0.36566  -0.36436  -0.36337  -0.36279  -0.36025
 Alpha  occ. eigenvalues --   -0.35934  -0.35845  -0.35729  -0.35543  -0.35108
 Alpha  occ. eigenvalues --   -0.35098  -0.34896  -0.34821  -0.33956  -0.33650
 Alpha  occ. eigenvalues --   -0.33480  -0.33323  -0.32799  -0.32743  -0.32685
 Alpha  occ. eigenvalues --   -0.32520  -0.31728  -0.31451  -0.31195  -0.30811
 Alpha  occ. eigenvalues --   -0.30600  -0.30396  -0.29547  -0.29381  -0.29017
 Alpha  occ. eigenvalues --   -0.28965  -0.28479  -0.28428  -0.26649  -0.26602
 Alpha  occ. eigenvalues --   -0.26355  -0.26334  -0.25758  -0.25728  -0.25339
 Alpha  occ. eigenvalues --   -0.25183  -0.24382  -0.24245  -0.20571  -0.20500
 Alpha  occ. eigenvalues --   -0.18884  -0.18877
 Alpha virt. eigenvalues --   -0.11277  -0.11023  -0.05490  -0.04869  -0.04176
 Alpha virt. eigenvalues --   -0.03623  -0.01919  -0.01745  -0.00169  -0.00003
 Alpha virt. eigenvalues --    0.00267   0.00703   0.01096   0.01342   0.01711

 Mulliken charges:
               1
     1  Mg  11.996238
     2  C    6.014867
     3  C    5.983717
     4  C    5.993657
     5  C    6.013129
     6  N    7.003405
     7  C    5.970544
     8  C    6.004264
     9  C    5.989513
    10  C    6.033046
    11  C    6.000527
    12  C    6.003380
    13  C    6.000006
    14  H    0.996200
    15  N    6.995294
    16  C    6.035853
    17  C    6.021198
    18  C    6.017515
    19  C    6.018658
    20  C    5.995567
    21  C    6.014709
    22  O    8.027575
    23  C    5.997378
    24  N    7.004163
    25  C    6.025872
    26  C    5.994515
    27  C    6.008861
    28  C    5.967354
    29  C    5.994873
    30  C    6.005473
    31  C    6.000031
    32  N    6.999757
    33  C    5.967600
    34  C    5.970251
    35  C    5.995540
    36  C    5.976557
    37  C    5.999609
    38  C    5.985640
    39  O    7.972573
    40  C    5.997050
    41  C    5.994398
    42  O    7.995124
    43  O    7.997518
    44  C    6.001272
    45  H    1.004888
    46  H    1.007184
    47  H    0.992716
    48  H    1.005415
    49  H    1.001592
    50  H    1.011221
    51  H    0.997937
    52  H    1.002105
    53  H    0.987738
    54  H    1.006701
    55  H    0.995303
    56  H    1.002506
    57  H    1.017639
    58  H    1.018978
    59  H    1.014770
    60  H    1.010285
    61  H    1.002101
    62  H    1.013180
    63  H    0.996946
    64  H    0.996771
    65  H    0.998807
    66  H    1.011086
    67  H    0.996974
    68  H    1.000585
    69  H    0.989183
    70  H    1.001697
    71  H    1.002719
    72  H    0.994687
    73  H    0.983636
    74  H    0.986510
    75  H    0.981106
    76  H    0.995498
    77  H    0.994112
    78  H    0.999324
    79  H    0.997831
    80  Mg  12.000015
    81  C    5.999815
    82  C    6.000188
    83  C    6.000124
    84  C    5.999932
    85  N    6.999965
    86  C    6.000326
    87  C    5.999891
    88  C    6.000051
    89  C    5.999680
    90  C    6.000016
    91  C    5.999987
    92  C    5.999984
    93  H    1.000075
    94  N    7.000000
    95  C    5.999617
    96  C    5.999806
    97  C    5.999817
    98  C    5.999760
    99  C    6.000060
   100  C    5.999818
   101  O    7.999744
   102  C    6.000038
   103  N    7.000026
   104  C    5.999675
   105  C    6.000055
   106  C    5.999899
   107  C    6.000342
   108  C    5.999997
   109  C    5.999966
   110  C    5.999958
   111  N    7.000040
   112  C    6.000246
   113  C    6.000415
   114  C    5.999976
   115  C    6.000206
   116  C    5.999929
   117  C    6.000213
   118  O    8.000270
   119  C    5.999979
   120  C    6.000068
   121  O    8.000091
   122  O    7.999994
   123  C    5.999971
   124  H    0.999901
   125  H    0.999916
   126  H    1.000100
   127  H    1.000030
   128  H    0.999991
   129  H    0.999982
   130  H    0.999906
   131  H    1.000043
   132  H    1.000060
   133  H    0.999913
   134  H    1.000025
   135  H    0.999974
   136  H    0.999834
   137  H    0.999823
   138  H    0.999774
   139  H    0.999913
   140  H    0.999844
   141  H    0.999967
   142  H    0.999997
   143  H    1.000059
   144  H    0.999920
   145  H    0.999988
   146  H    1.000049
   147  H    1.000102
   148  H    0.999967
   149  H    1.000048
   150  H    0.999933
   151  H    1.000061
   152  H    1.000178
   153  H    1.000173
   154  H    1.000282
   155  H    1.000067
   156  H    1.000069
   157  H    1.000064
   158  H    1.000022
 Sum of Mulliken charges = 624.00000

 Dipole moment (field-independent basis, Debye):
    X=             -3.1058    Y=             -3.5789    Z=              8.9119  Tot=             10.0934
 Quadrupole moment (field-independent basis, Debye-Ang):
   XX=            137.5256   YY=              2.9568   ZZ=              2.6172
   XY=             87.4000   XZ=           -210.8499   YZ=             -8.2754

 Normal termination of Gaussian 16 at Thu Oct 14 07:46:00 2021.
