 Gaussian 16, Revision A.03,
 Gaussian 16:  ES64L-G16RevA.03 25-Dec-2016

 --------------------------------------------------------
 #p PBE1PBE/Def2SVP td=(nstates=5) density=(transition=1)
 --------------------------------------------------------

 --------------------------------
 TDDFT excited states in gaussian
 --------------------------------
 Symbolic Z-matrix:
 Charge =  0 Multiplicity = 1

                         Standard orientation:
 ---------------------------------------------------------------------
 Center     Atomic      Atomic             Coordinates (Angstroms)
 Number     Number       Type             X           Y           Z
 ---------------------------------------------------------------------
      1         12           0      -32.012883    0.336260    0.463840
      2          6           0      -30.000973   -2.076352   -1.073840
      3          6           0      -33.149356    1.130681   -2.716619
      4          6           0      -33.556798    2.855125    1.821380
      5          6           0      -30.515519   -0.524455    3.555886
      6          7           0      -31.309693   -0.133970   -1.739627
      7          6           0      -30.620724   -1.234700   -2.057646
      8          6           0      -30.659216   -1.381805   -3.542075
      9          6           0      -31.314666   -0.077781   -4.059255
     10          6           0      -32.008123    0.347713   -2.780241
     11          6           0      -30.444750    1.022020   -4.670523
     12          6           0      -31.459593   -2.648444   -3.982398
     13          6           0      -30.820193   -3.625965   -5.020762
     14          1           0      -29.829569   -3.062211   -6.086711
     15          7           0      -33.336471    1.733826   -0.335336
     16          6           0      -33.793249    1.740238   -1.646623
     17          6           0      -34.785333    2.762561   -1.725395
     18          6           0      -34.847313    3.396847   -0.420257
     19          6           0      -33.915704    2.681912    0.439312
     20          6           0      -35.522389    3.172560   -3.019129
     21          6           0      -35.658703    4.639780    0.045886
     22          8           0      -35.622704    5.094740    1.145035
     23          6           0      -36.595044    5.244535   -0.981695
     24          7           0      -32.017754    1.019402    2.408580
     25          6           0      -32.703080    2.145092    2.709462
     26          6           0      -32.607916    2.560876    4.203330
     27          6           0      -31.841342    1.298048    4.788607
     28          6           0      -31.441321    0.514636    3.543983
     29          6           0      -31.843437    3.999416    4.354351
     30          6           0      -32.644669    0.526580    5.882366
     31          6           0      -33.409611   -0.714438    5.458474
     32          7           0      -30.570014   -1.046089    1.195056
     33          6           0      -30.143705   -1.330592    2.464258
     34          6           0      -29.171308   -2.476683    2.385249
     35          6           0      -29.102949   -2.784950    1.007748
     36          6           0      -29.938689   -1.866678    0.289887
     37          6           0      -28.314682   -3.036372    3.488306
     38          6           0      -28.488001   -3.662518    0.014886
     39          8           0      -27.669979   -4.567284    0.204128
     40          6           0      -29.172984   -3.331308   -1.307670
     41          6           0      -28.063878   -3.120502   -2.298183
     42          8           0      -27.383964   -2.114549   -2.386434
     43          8           0      -27.876335   -4.291965   -2.883444
     44          6           0      -26.621328   -4.518542   -3.582839
     45          1           0      -33.401648    1.480415   -3.719391
     46          1           0      -34.201756    3.576231    2.327212
     47          1           0      -30.065753   -0.798970    4.512667
     48          1           0      -29.638324   -1.492058   -3.906379
     49          1           0      -31.977892   -0.377977   -4.870602
     50          1           0      -29.379261    0.806953   -4.753566
     51          1           0      -30.551871    1.946497   -4.102414
     52          1           0      -30.837907    1.192720   -5.672471
     53          1           0      -32.480471   -2.430863   -4.295656
     54          1           0      -31.540237   -3.143322   -3.014668
     55          1           0      -31.684874   -4.041162   -5.540023
     56          1           0      -30.307341   -4.420077   -4.478711
     57          1           0      -35.457097    4.239528   -3.232467
     58          1           0      -36.600491    3.029650   -2.944208
     59          1           0      -35.207982    2.627771   -3.910310
     60          1           0      -37.252816    4.506256   -1.440835
     61          1           0      -35.989543    5.781526   -1.711946
     62          1           0      -37.160867    6.065524   -0.541369
     63          1           0      -33.586567    2.667480    4.670960
     64          1           0      -30.934197    1.563372    5.331372
     65          1           0      -30.873503    3.744280    4.781452
     66          1           0      -32.285311    4.649053    5.110203
     67          1           0      -31.626115    4.489903    3.404840
     68          1           0      -33.429037    1.227388    6.168601
     69          1           0      -32.044121    0.306595    6.764768
     70          1           0      -33.883617   -0.422612    4.520527
     71          1           0      -34.105694   -0.826448    6.289422
     72          1           0      -32.884567   -1.633470    5.199339
     73          1           0      -28.321229   -2.540279    4.458895
     74          1           0      -27.272775   -3.033603    3.167802
     75          1           0      -28.595548   -4.086836    3.557212
     76          1           0      -29.719376   -4.159467   -1.759442
     77          1           0      -25.826768   -3.774614   -3.534646
     78          1           0      -26.932275   -4.524709   -4.627980
     79          1           0      -26.401980   -5.585727   -3.547388
     80         12           0       31.925491    0.466675   -0.648653
     81          6           0       29.564840   -2.082969   -0.052653
     82          6           0       29.384835    2.715574   -0.340952
     83          6           0       34.288510    2.928911   -0.461600
     84          6           0       34.411190   -2.074343   -0.394594
     85          7           0       29.708742    0.327968   -0.093135
     86          6           0       28.909661   -0.778104   -0.042876
     87          6           0       27.457172   -0.431717    0.327494
     88          6           0       27.481714    1.094299   -0.175692
     89          6           0       28.956968    1.407344   -0.210686
     90          6           0       26.814647    1.360802   -1.551747
     91          6           0       27.129940   -0.521641    1.885766
     92          6           0       25.690376   -0.743398    2.323469
     93          1           0       24.868837    0.353345    3.033928
     94          7           0       31.921229    2.608910   -0.463178
     95          6           0       30.749818    3.308267   -0.493436
     96          6           0       30.985119    4.676850   -0.635311
     97          6           0       32.423818    4.801693   -0.704135
     98          6           0       32.978537    3.431896   -0.512060
     99          6           0       29.904172    5.747400   -0.724113
    100          6           0       33.116137    6.131043   -0.903113
    101          8           0       32.428060    7.177294   -1.024037
    102          6           0       34.667347    6.286627   -1.082736
    103          7           0       33.995906    0.372436   -0.464085
    104          6           0       34.774211    1.561379   -0.442465
    105          6           0       36.222524    1.230184   -0.672679
    106          6           0       36.333457   -0.269289   -0.321205
    107          6           0       34.854666   -0.731831   -0.469804
    108          6           0       36.840582    1.416534   -2.076839
    109          6           0       36.839315   -0.509643    1.197486
    110          6           0       38.334647   -0.490824    1.476540
    111          7           0       31.944411   -1.679200   -0.477109
    112          6           0       33.014563   -2.557729   -0.398484
    113          6           0       32.593956   -3.858372   -0.194064
    114          6           0       31.195863   -3.750104   -0.100124
    115          6           0       30.859069   -2.394880   -0.255729
    116          6           0       33.491691   -5.051791   -0.102883
    117          6           0       30.037571   -4.470565   -0.012252
    118          8           0       29.858381   -5.672261   -0.037027
    119          6           0       28.963128   -3.402137    0.280074
    120          6           0       28.609182   -3.597018    1.724208
    121          8           0       29.394619   -3.536754    2.618373
    122          8           0       27.259625   -3.931557    1.849198
    123          6           0       26.913815   -4.290407    3.180594
    124          1           0       28.585349    3.450580   -0.457244
    125          1           0       35.082497    3.664998   -0.606942
    126          1           0       35.217174   -2.807158   -0.467919
    127          1           0       26.732644   -0.933872   -0.312729
    128          1           0       26.908538    1.665751    0.553857
    129          1           0       25.828182    1.727331   -1.266380
    130          1           0       26.686725    0.447877   -2.133263
    131          1           0       27.337341    2.139633   -2.107248
    132          1           0       27.402063    0.408438    2.384857
    133          1           0       27.804173   -1.272841    2.297692
    134          1           0       25.748470   -1.614230    2.978054
    135          1           0       25.131675   -1.055175    1.441147
    136          1           0       30.050093    6.610051   -1.375086
    137          1           0       29.834130    5.978344    0.338580
    138          1           0       28.997421    5.324032   -1.156210
    139          1           0       34.982040    5.760971   -1.983859
    140          1           0       35.049637    5.860195   -0.155521
    141          1           0       35.054816    7.304988   -1.055656
    142          1           0       36.785250    1.791728    0.072341
    143          1           0       36.998561   -0.805141   -0.998505
    144          1           0       37.128810    0.495044   -2.582383
    145          1           0       37.464164    2.309715   -2.120511
    146          1           0       35.998957    1.745413   -2.686225
    147          1           0       36.415698   -1.497389    1.378046
    148          1           0       36.382418    0.210488    1.876541
    149          1           0       38.537004    0.205643    2.289779
    150          1           0       38.862750   -0.162619    0.580850
    151          1           0       38.688069   -1.465101    1.815142
    152          1           0       33.185404   -5.587052    0.795418
    153          1           0       34.536679   -4.781289    0.053505
    154          1           0       33.389327   -5.725779   -0.953565
    155          1           0       28.101825   -3.609594   -0.353986
    156          1           0       27.006629   -5.369059    3.304087
    157          1           0       25.856664   -4.148479    3.408274
    158          1           0       27.541997   -3.797473    3.920589
 ---------------------------------------------------------------------

 SCF Done:  E(RPBE1PBE) =  -4067.35177292     A.U. after   16 cycles

 Excitation energies and oscillator strengths:

 Excited State   1:      Singlet-A      1.7724 eV  699.51 nm  f=0.0000  <S**2>=0.000
     312 -> 313        0.70711
 This state for optimization and/or second-order correction.
 Total Energy, E(TD-HF/TD-DFT) =  -4067.28663699
 Copying the excited state density for this state as the 1-particle RhoCI density.

 Excited State   2:      Singlet-A      1.8621 eV  665.84 nm  f=0.3818  <S**2>=0.000
     309 -> 315       -0.18180
     311 -> 313        0.68865
     311 <- 313       -0.10551

 Excited State   3:      Singlet-A      1.8764 eV  660.75 nm  f=0.3915  <S**2>=0.000
     310 -> 316        0.18226
     312 -> 314        0.69069
     312 <- 314       -0.10328

 Excited State   4:      Singlet-A      2.1541 eV  575.57 nm  f=0.1181  <S**2>=0.000
     309 -> 313        0.65689
     311 -> 315        0.24322

 Excited State   5:      Singlet-A      2.2077 eV  561.59 nm  f=0.0949  <S**2>=0.000
     310 -> 314        0.65479
     312 -> 316       -0.25273

 The electronic state is 1-A.
 Alpha  occ. eigenvalues --  -46.93692 -46.92179 -19.26808 -19.26010 -19.21077
 Alpha  occ. eigenvalues --  -19.19752 -19.19390 -19.18986 -19.18355 -19.18158
 Alpha  occ. eigenvalues --  -14.42499 -14.42335 -14.41388 -14.40982 -14.39440
 Alpha  occ. eigenvalues --  -14.38878 -14.38833 -14.38532 -10.36676 -10.36029
 Alpha  occ. eigenvalues --  -10.32396 -10.32227 -10.31793 -10.30457 -10.30108
 Alpha  occ. eigenvalues --  -10.30096 -10.29450 -10.29212 -10.28837 -10.28679
 Alpha  occ. eigenvalues --  -10.28667 -10.28535 -10.28355 -10.28195 -10.28106
 Alpha  occ. eigenvalues --  -10.27918 -10.27685 -10.27616 -10.27451 -10.27046
 Alpha  occ. eigenvalues --  -10.26949 -10.26943 -10.26829 -10.26756 -10.26581
 Alpha  occ. eigenvalues --  -10.26312 -10.26214 -10.25998 -10.25965 -10.25869
 Alpha  occ. eigenvalues --  -10.25835 -10.25829 -10.25754 -10.25695 -10.25661
 Alpha  occ. eigenvalues --  -10.25605 -10.25495 -10.25459 -10.25403 -10.25250
 Alpha  occ. eigenvalues --  -10.25211 -10.25010 -10.24924 -10.24880 -10.24838
 Alpha  occ. eigenvalues --  -10.24713 -10.24324 -10.24317 -10.24287 -10.24233
 Alpha  occ. eigenvalues --  -10.24171 -10.24053 -10.23989 -10.23950 -10.23774
 Alpha  occ. eigenvalues --  -10.23755 -10.23662 -10.23551 -10.23535 -10.23288
 Alpha  occ. eigenvalues --  -10.23281 -10.23102 -10.22899 -10.22635 -10.22459
 Alpha  occ. eigenvalues --  -10.21872  -3.15571  -3.14219  -1.88409  -1.87938
 Alpha  occ. eigenvalues --   -1.87789  -1.87067  -1.86628  -1.86401  -1.13023
 Alpha  occ. eigenvalues --   -1.12355  -1.06293  -1.04821  -1.04288  -1.04118
 Alpha  occ. eigenvalues --   -1.03351  -1.02055  -1.00330  -0.99599  -0.99342
 Alpha  occ. eigenvalues --   -0.98595  -0.98396  -0.97178  -0.96687  -0.96522
 Alpha  occ. eigenvalues --   -0.88716  -0.87569  -0.83220  -0.83023  -0.83020
 Alpha  occ. eigenvalues --   -0.82982  -0.82861  -0.82406  -0.81926  -0.81424
 Alpha  occ. eigenvalues --   -0.81419  -0.80431  -0.80214  -0.79857  -0.78746
 Alpha  occ. eigenvalues --   -0.78648  -0.77988  -0.77915  -0.77166  -0.76878
 Alpha  occ. eigenvalues --   -0.76151  -0.75741  -0.75112  -0.75007  -0.74582
 Alpha  occ. eigenvalues --   -0.74301  -0.72391  -0.72238  -0.71698  -0.71610
 Alpha  occ. eigenvalues --   -0.71333  -0.71214  -0.70596  -0.70272  -0.70043
 Alpha  occ. eigenvalues --   -0.69503  -0.68066  -0.67083  -0.66690  -0.66190
 Alpha  occ. eigenvalues --   -0.63911  -0.63869  -0.63311  -0.62911  -0.62788
 Alpha  occ. eigenvalues --   -0.62379  -0.61640  -0.60678  -0.60622  -0.59792
 Alpha  occ. eigenvalues --   -0.59722  -0.59447  -0.59282  -0.59175  -0.58873
 Alpha  occ. eigenvalues --   -0.58766  -0.57350  -0.57302  -0.55020  -0.54718
 Alpha  occ. eigenvalues --   -0.54405  -0.54194  -0.54137  -0.53773  -0.53763
 Alpha  occ. eigenvalues --   -0.53549  -0.53104  -0.52709  -0.52378  -0.51868
 Alpha  occ. eigenvalues --   -0.51392  -0.51123  -0.50580  -0.50184  -0.49852
 Alpha  occ. eigenvalues --   -0.49657  -0.49486  -0.49381  -0.49206  -0.48442
 Alpha  occ. eigenvalues --   -0.48155  -0.48153  -0.47836  -0.47806  -0.47454
 Alpha  occ. eigenvalues --   -0.47333  -0.47220  -0.47206  -0.46680  -0.46519
 Alpha  occ. eigenvalues --   -0.46421  -0.46279  -0.46048  -0.45914  -0.45779
 Alpha  occ. eigenvalues --   -0.45748  -0.45496  -0.45472  -0.45147  -0.44713
 Alpha  occ. eigenvalues --   -0.44657  -0.44473  -0.44336  -0.44284  -0.43981
 Alpha  occ. eigenvalues --   -0.43963  -0.43783  -0.43633  -0.43543  -0.43470
 Alpha  occ. eigenvalues --   -0.43274  -0.43093  -0.43072  -0.42822  -0.42655
 Alpha  occ. eigenvalues --   -0.42645  -0.42016  -0.41929  -0.41884  -0.41696
 Alpha  occ. eigenvalues --   -0.41554  -0.41276  -0.41139  -0.41124  -0.41081
 Alpha  occ. eigenvalues --   -0.40852  -0.40786  -0.40703  -0.40619  -0.40539
 Alpha  occ. eigenvalues --   -0.40380  -0.40265  -0.40056  -0.39936  -0.39839
 Alpha  occ. eigenvalues --   -0.39688  -0.39568  -0.39496  -0.39404  -0.39182
 Alpha  occ. eigenvalues --   -0.38654  -0.38622  -0.38480  -0.38157  -0.38130
 Alpha  occ. eigenvalues --   -0.38042  -0.37999  -0.37927  -0.37776  -0.37710
 Alpha  occ. eigenvalues --   -0.37547  -0.37410  -0.37289  -0.37081  -0.37024
 Alpha  occ. eigenvalues --   -0.36682  -0.36511  -0.36396  -0.36199  -0.36097
 Alpha  occ. eigenvalues --   -0.36002  -0.35994  -0.35834  -0.35561  -0.35379
 Alpha  occ. eigenvalues --   -0.35212  -0.35143  -0.34541  -0.34354  -0.34277
 Alpha  occ. eigenvalues --   -0.33482  -0.33274  -0.32820  -0.32626  -0.32178
 Alpha  occ. eigenvalues --   -0.32133  -0.32075  -0.31904  -0.31728  -0.31601
 Alpha  occ. eigenvalues --   -0.31317  -0.31190  -0.30382  -0.30248  -0.29449
 Alpha  occ. eigenvalues --   -0.29100  -0.29009  -0.28530  -0.27079  -0.26483
 Alpha  occ. eigenvalues --   -0.26016  -0.25694  -0.25409  -0.25372  -0.25335
 Alpha  occ. eigenvalues --   -0.25230  -0.24738  -0.24618  -0.21304  -0.20718
 Alpha  occ. eigenvalues --   -0.19625  -0.18707
 Alpha virt. eigenvalues --   -0.11985  -0.10982  -0.05977  -0.05009  -0.04269
 Alpha virt. eigenvalues --   -0.03944  -0.01855  -0.01616  -0.01389   0.00011
 Alpha virt. eigenvalues --    0.00111   0.00758   0.01083   0.01220   0.01255

 Mulliken charges:
               1
     1  Mg  12.000000
     2  C    6.000000
     3  C    6.000000
     4  C    6.000000
     5  C    6.000000
     6  N    7.000000
     7  C    6.000000
     8  C    6.000000
     9  C    6.000000
    10  C    6.000000
    11  C    6.000000
    12  C    6.000000
    13  C    6.000000
    14  H    1.000000
    15  N    7.000000
    16  C    6.000000
    17  C    6.000000
    18  C    6.000000
    19  C    6.000000
    20  C    6.000000
    21  C    6.000000
    22  O    8.000000
    23  C    6.000000
    24  N    7.000000
    25  C    6.000000
    26  C    6.000000
    27  C    6.000000
    28  C    6.000000
    29  C    6.000000
    30  C    6.000000
    31  C    6.000000
    32  N    7.000000
    33  C    6.000000
    34  C    6.000000
    35  C    6.000000
    36  C    6.000000
    37  C    6.000000
    38  C    6.000000
    39  O    8.000000
    40  C    6.000000
    41  C    6.000000
    42  O    8.000000
    43  O    8.000000
    44  C    6.000000
    45  H    1.000000
    46  H    1.000000
    47  H    1.000000
    48  H    1.000000
    49  H    1.000000
    50  H    1.000000
    51  H    1.000000
    52  H    1.000000
    53  H    1.000000
    54  H    1.000000
    55  H    1.000000
    56  H    1.000000
    57  H    1.000000
    58  H    1.000000
    59  H    1.000000
    60  H    1.000000
    61  H    1.000000
    62  H    1.000000
    63  H    1.000000
    64  H    1.000000
    65  H    1.000000
    66  H    1.000000
    67  H    1.000000
    68  H    1.000000
    69  H    1.000000
    70  H    1.000000
    71  H    1.000000
    72  H    1.000000
    73  H    1.000000
    74  H    1.000000
    75  H    1.000000
    76  H    1.000000
    77  H    1.000000
    78  H    1.000000
    79  H    1.000000
    80  Mg  12.000000
    81  C    6.000000
    82  C    6.000000
    83  C    6.000000
    84  C    6.000000
    85  N    7.000000
    86  C    6.000000
    87  C    6.000000
    88  C    6.000000
    89  C    6.000000
    90  C    6.000000
    91  C    6.000000
    92  C    6.000000
    93  H    1.000000
    94  N    7.000000
    95  C    6.000000
    96  C    6.000000
    97  C    6.000000
    98  C    6.000000
    99  C    6.000000
   100  C    6.000000
   101  O    8.000000
   102  C    6.000000
   103  N    7.000000
   104  C    6.000000
   105  C    6.000000
   106  C    6.000000
   107  C    6.000000
   108  C    6.000000
   109  C    6.000000
   110  C    6.000000
   111  N    7.000000
   112  C    6.000000
   113  C    6.000000
   114  C    6.000000
   115  C    6.000000
   116  C    6.000000
   117  C    6.000000
   118  O    8.000000
   119  C    6.000000
   120  C    6.000000
   121  O    8.000000
   122  O    8.000000
   123  C    6.000000
   124  H    1.000000
   125  H    1.000000
   126  H    1.000000
   127  H    1.000000
   128  H    1.000000
   129  H    1.000000
   130  H    1.000000
   131  H    1.000000
   132  H    1.000000
   133  H    1.000000
   134  H    1.000000
   135  H    1.000000
   136  H    1.000000
   137  H    1.000000
   138  H    1.000000
   139  H    1.000000
   140  H    1.000000
   141  H    1.000000
   142  H    1.000000
   143  H    1.000000
   144  H    1.000000
   145  H    1.000000
   146  H    1.000000
   147  H    1.000000
   148  H    1.000000
   149  H    1.000000
   150  H    1.000000
   151  H    1.000000
   152  H    1.000000
   153  H    1.000000
   154  H    1.000000
   155  H    1.000000
   156  H    1.000000
   157  H    1.000000
   158  H    1.000000
 Sum of Mulliken charges = 624.00000

 Dipole moment (field-independent basis, Debye):
    X=              0.0000    Y=             -0.0000    Z=              0.0000  Tot=              0.0000
 Quadrupole moment (field-independent basis, Debye-Ang):
   XX=             -0.0000   YY=             -0.0000   ZZ=              0.0000
   XY=              0.0000   XZ=             -0.0000   YZ=              0.0000

 Normal termination of Gaussian 16 at Fri Oct 15 18:45:03 2021.
