 Gaussian 16, Revision A.03,
 Gaussian 16:  ES64L-G16RevA.03 25-Dec-2016

 --------------------------------------------------------
 #p PBE1PBE/Def2SVP td=(nstates=5) density=(transition=1)
 --------------------------------------------------------

 --------------------------------
 TDDFT excited states in gaussian
 --------------------------------
 Symbolic Z-matrix:
 Charge =  0 Multiplicity = 1

                         Standard orientation:
 ---------------------------------------------------------------------
 Center     Atomic      Atomic             Coordinates (Angstroms)
 Number     Number       Type             X           Y           Z
 ---------------------------------------------------------------------
      1         12           0       25.876916   -0.782152    0.184466
      2          6           0       26.931939    2.435530   -0.839935
      3          6           0       24.992764    0.550848    3.242744
      4          6           0       25.148698   -3.918588    1.239972
      5          6           0       26.987059   -2.126148   -2.857024
      6          7           0       26.089121    1.251521    1.033675
      7          6           0       26.335330    2.456054    0.379059
      8          6           0       26.103177    3.693855    1.338937
      9          6           0       25.759465    2.994704    2.681161
     10          6           0       25.649062    1.491027    2.343272
     11          6           0       26.725379    3.219900    3.904038
     12          6           0       25.122371    4.823007    0.818612
     13          6           0       25.731407    6.185951    0.685106
     14          1           0       24.795238    7.403749    1.055301
     15          7           0       25.194995   -1.507269    1.967212
     16          6           0       24.814818   -0.821661    3.103062
     17          6           0       24.384031   -1.769590    4.118715
     18          6           0       24.407911   -3.089264    3.585154
     19          6           0       24.916749   -2.886663    2.178829
     20          6           0       23.820042   -1.362828    5.494988
     21          6           0       23.989552   -4.413147    4.216666
     22          8           0       23.975742   -5.471261    3.622042
     23          6           0       23.420609   -4.557976    5.687487
     24          7           0       26.139460   -2.776054   -0.669325
     25          6           0       25.761586   -3.881111   -0.040086
     26          6           0       25.994635   -5.165384   -0.913266
     27          6           0       26.407348   -4.554463   -2.310647
     28          6           0       26.501125   -3.040260   -1.953322
     29          6           0       26.980223   -6.160594   -0.235311
     30          6           0       25.427507   -4.921650   -3.407468
     31          6           0       26.087586   -5.295897   -4.733349
     32          7           0       26.905281   -0.116977   -1.500563
     33          6           0       27.204233   -0.738504   -2.697846
     34          6           0       27.907179    0.209922   -3.505847
     35          6           0       27.801476    1.472575   -2.871609
     36          6           0       27.175592    1.244061   -1.614459
     37          6           0       28.541131   -0.062709   -4.817014
     38          6           0       28.050266    2.915986   -3.030878
     39          8           0       28.663466    3.568686   -3.870441
     40          6           0       27.397355    3.613386   -1.607152
     41          6           0       28.411087    4.358206   -0.927826
     42          8           0       28.978972    3.991827    0.078177
     43          8           0       28.561679    5.605299   -1.490901
     44          6           0       29.644744    6.394346   -0.852878
     45          1           0       24.586028    0.947885    4.175353
     46          1           0       24.977664   -4.953049    1.543372
     47          1           0       27.223444   -2.611046   -3.807157
     48          1           0       27.106717    4.074631    1.525639
     49          1           0       24.774675    3.301868    3.033338
     50          1           0       26.090790    3.332100    4.783687
     51          1           0       27.323437    4.110139    3.710906
     52          1           0       27.414817    2.396195    4.090260
     53          1           0       24.275603    4.818873    1.505095
     54          1           0       24.804840    4.524804   -0.180709
     55          1           0       26.040896    6.350204   -0.347883
     56          1           0       26.605482    6.136082    1.333804
     57          1           0       22.770238   -1.652352    5.464507
     58          1           0       23.796659   -0.274775    5.560255
     59          1           0       24.280222   -1.843667    6.359090
     60          1           0       22.546852   -3.911095    5.773266
     61          1           0       24.199701   -4.511413    6.448950
     62          1           0       23.208163   -5.621706    5.790202
     63          1           0       25.083276   -5.731050   -1.105997
     64          1           0       27.422127   -4.905612   -2.498818
     65          1           0       27.749790   -6.427087   -0.960334
     66          1           0       26.486728   -7.030387    0.199042
     67          1           0       27.472343   -5.671962    0.604018
     68          1           0       24.702260   -4.130042   -3.592946
     69          1           0       24.755701   -5.742392   -3.151396
     70          1           0       27.153593   -5.068332   -4.726351
     71          1           0       25.615428   -4.673234   -5.493775
     72          1           0       25.867213   -6.320170   -5.034429
     73          1           0       28.486592   -1.082398   -5.198149
     74          1           0       29.513864    0.429817   -4.789372
     75          1           0       27.837099    0.384845   -5.518947
     76          1           0       26.576693    4.276307   -1.882766
     77          1           0       30.593343    5.865761   -0.949553
     78          1           0       29.317504    6.580630    0.169984
     79          1           0       29.809213    7.357084   -1.335234
     80         12           0      -26.839441   -0.476120   -0.150741
     81          6           0      -24.934199    2.415925   -0.880580
     82          6           0      -27.998851    1.098912    2.599588
     83          6           0      -28.471698   -3.226865    0.547435
     84          6           0      -24.923925   -2.171562   -2.665521
     85          7           0      -26.434557    1.531898    0.853166
     86          6           0      -25.821889    2.589445    0.202008
     87          6           0      -26.162070    3.822795    0.966819
     88          6           0      -26.637369    3.317908    2.329536
     89          6           0      -27.092127    1.887215    1.946898
     90          6           0      -25.445249    3.264804    3.357025
     91          6           0      -27.243366    4.826389    0.291406
     92          6           0      -27.020408    6.369386    0.327563
     93          1           0      -26.666574    6.993940    1.708213
     94          7           0      -28.070776   -0.968594    1.410776
     95          6           0      -28.417759   -0.191211    2.393810
     96          6           0      -29.291522   -0.955906    3.300491
     97          6           0      -29.638135   -2.168447    2.630903
     98          6           0      -28.693686   -2.184719    1.477906
     99          6           0      -29.825487   -0.552345    4.722962
    100          6           0      -30.672709   -3.246984    2.950714
    101          8           0      -30.780816   -4.321251    2.329086
    102          6           0      -31.448514   -3.118305    4.174653
    103          7           0      -26.558420   -2.511316   -0.881930
    104          6           0      -27.487434   -3.468129   -0.481655
    105          6           0      -27.338417   -4.740382   -1.402207
    106          6           0      -26.311394   -4.288178   -2.470060
    107          6           0      -25.922084   -2.880221   -2.013994
    108          6           0      -27.019992   -6.012650   -0.616387
    109          6           0      -26.759725   -4.416026   -3.947719
    110          6           0      -25.711493   -4.892797   -4.980023
    111          7           0      -25.250150   -0.035531   -1.499208
    112          6           0      -24.547047   -0.816655   -2.410903
    113          6           0      -23.675269    0.041133   -3.172588
    114          6           0      -23.754746    1.296851   -2.568601
    115          6           0      -24.741017    1.235848   -1.545776
    116          6           0      -22.918326   -0.308598   -4.301747
    117          6           0      -23.297497    2.693260   -2.623026
    118          8           0      -22.532969    3.287152   -3.366780
    119          6           0      -24.082020    3.482964   -1.524721
    120          6           0      -23.054120    4.130571   -0.614080
    121          8           0      -22.422721    3.737192    0.340484
    122          8           0      -23.052837    5.417813   -1.068137
    123          6           0      -22.422556    6.450688   -0.211748
    124          1           0      -28.450237    1.625491    3.443499
    125          1           0      -29.181776   -4.043841    0.691190
    126          1           0      -24.498762   -2.605417   -3.572461
    127          1           0      -25.338117    4.511746    1.154355
    128          1           0      -27.541328    3.820447    2.672785
    129          1           0      -25.740972    3.460244    4.387225
    130          1           0      -24.704555    4.048783    3.197493
    131          1           0      -25.075987    2.241267    3.302705
    132          1           0      -28.241172    4.571488    0.646970
    133          1           0      -27.350399    4.586148   -0.767040
    134          1           0      -28.014425    6.748512    0.087543
    135          1           0      -26.249540    6.496245   -0.432587
    136          1           0      -30.895352   -0.353337    4.781040
    137          1           0      -29.277923    0.341339    5.023616
    138          1           0      -29.748190   -1.327551    5.485361
    139          1           0      -31.957546   -2.154906    4.213951
    140          1           0      -30.810287   -3.229645    5.051311
    141          1           0      -32.275366   -3.823672    4.097715
    142          1           0      -28.278861   -4.825481   -1.946862
    143          1           0      -25.358852   -4.797391   -2.324830
    144          1           0      -25.937997   -6.112632   -0.524312
    145          1           0      -27.323246   -6.936804   -1.107367
    146          1           0      -27.308373   -5.867252    0.424146
    147          1           0      -27.250259   -3.526021   -4.341583
    148          1           0      -27.594490   -5.111847   -4.042100
    149          1           0      -25.348395   -3.970216   -5.433142
    150          1           0      -26.289627   -5.432404   -5.730836
    151          1           0      -24.923778   -5.458117   -4.482763
    152          1           0      -22.042416    0.279363   -4.575012
    153          1           0      -23.616661   -0.374740   -5.136640
    154          1           0      -22.514433   -1.295871   -4.080488
    155          1           0      -24.724323    4.230510   -1.989892
    156          1           0      -23.114813    7.291560   -0.243234
    157          1           0      -21.449424    6.818010   -0.536625
    158          1           0      -22.356276    6.092482    0.815241
 ---------------------------------------------------------------------

 SCF Done:  E(RPBE1PBE) =  -4067.37085580     A.U. after   16 cycles

 Excitation energies and oscillator strengths:

 Excited State   1:      Singlet-A      1.8744 eV  661.48 nm  f=0.3577  <S**2>=0.000
     309 -> 316       -0.17475
     311 -> 313        0.69059
 This state for optimization and/or second-order correction.
 Total Energy, E(TD-HF/TD-DFT) =  -4067.30197455
 Copying the excited state density for this state as the 1-particle RhoCI density.

 Excited State   2:      Singlet-A      1.8849 eV  657.79 nm  f=0.3810  <S**2>=0.000
     310 -> 315       -0.17660
     312 -> 314        0.68857

 Excited State   3:      Singlet-A      1.9897 eV  623.13 nm  f=0.0000  <S**2>=0.000
     312 -> 313        0.70711

 Excited State   4:      Singlet-A      2.1203 eV  584.75 nm  f=0.0000  <S**2>=0.000
     311 -> 314        0.70711

 Excited State   5:      Singlet-A      2.2446 eV  552.37 nm  f=0.1087  <S**2>=0.000
     309 -> 313        0.65160
     311 -> 316        0.26000

 The electronic state is 1-A.
 Alpha  occ. eigenvalues --  -46.92757 -46.91654 -19.25073 -19.25007 -19.20268
 Alpha  occ. eigenvalues --  -19.19969 -19.19749 -19.19502 -19.19425 -19.18936
 Alpha  occ. eigenvalues --  -14.41797 -14.41319 -14.41229 -14.40936 -14.39873
 Alpha  occ. eigenvalues --  -14.39443 -14.38680 -14.38651 -10.36259 -10.35330
 Alpha  occ. eigenvalues --  -10.33452 -10.33239 -10.32576 -10.32008 -10.29948
 Alpha  occ. eigenvalues --  -10.29461 -10.29311 -10.28704 -10.28704 -10.28584
 Alpha  occ. eigenvalues --  -10.28522 -10.28404 -10.28317 -10.28182 -10.28124
 Alpha  occ. eigenvalues --  -10.27836 -10.27719 -10.27567 -10.27387 -10.27360
 Alpha  occ. eigenvalues --  -10.27358 -10.27086 -10.26777 -10.26734 -10.26190
 Alpha  occ. eigenvalues --  -10.26151 -10.25950 -10.25728 -10.25712 -10.25671
 Alpha  occ. eigenvalues --  -10.25567 -10.25453 -10.25390 -10.25371 -10.25367
 Alpha  occ. eigenvalues --  -10.25354 -10.25337 -10.25274 -10.25269 -10.25180
 Alpha  occ. eigenvalues --  -10.25113 -10.25089 -10.25063 -10.25062 -10.25008
 Alpha  occ. eigenvalues --  -10.24886 -10.24385 -10.24378 -10.24229 -10.24097
 Alpha  occ. eigenvalues --  -10.24042 -10.24018 -10.23791 -10.23746 -10.23664
 Alpha  occ. eigenvalues --  -10.23626 -10.23281 -10.23279 -10.23221 -10.23200
 Alpha  occ. eigenvalues --  -10.23101 -10.23096 -10.22893 -10.22782 -10.22715
 Alpha  occ. eigenvalues --  -10.22592  -3.14728  -3.13763  -1.87566  -1.87103
 Alpha  occ. eigenvalues --   -1.86942  -1.86612  -1.86130  -1.85994  -1.10905
 Alpha  occ. eigenvalues --   -1.10659  -1.05932  -1.04367  -1.04331  -1.04013
 Alpha  occ. eigenvalues --   -1.02617  -1.02297  -0.99799  -0.98693  -0.98571
 Alpha  occ. eigenvalues --   -0.97705  -0.96994  -0.96765  -0.96633  -0.95639
 Alpha  occ. eigenvalues --   -0.87164  -0.86365  -0.83441  -0.83195  -0.82788
 Alpha  occ. eigenvalues --   -0.82658  -0.82312  -0.82203  -0.81916  -0.81349
 Alpha  occ. eigenvalues --   -0.81246  -0.81182  -0.81182  -0.80246  -0.78604
 Alpha  occ. eigenvalues --   -0.78526  -0.77974  -0.77902  -0.76986  -0.76786
 Alpha  occ. eigenvalues --   -0.76593  -0.75857  -0.75336  -0.75000  -0.74990
 Alpha  occ. eigenvalues --   -0.74159  -0.72668  -0.72478  -0.71764  -0.71359
 Alpha  occ. eigenvalues --   -0.71296  -0.70796  -0.70182  -0.70094  -0.69481
 Alpha  occ. eigenvalues --   -0.69073  -0.67003  -0.66792  -0.66284  -0.65736
 Alpha  occ. eigenvalues --   -0.63316  -0.63244  -0.63237  -0.63128  -0.62204
 Alpha  occ. eigenvalues --   -0.61979  -0.61735  -0.61518  -0.60048  -0.59986
 Alpha  occ. eigenvalues --   -0.59854  -0.59450  -0.59337  -0.59047  -0.58957
 Alpha  occ. eigenvalues --   -0.58915  -0.56547  -0.55787  -0.55001  -0.54401
 Alpha  occ. eigenvalues --   -0.54147  -0.53840  -0.53799  -0.53293  -0.52961
 Alpha  occ. eigenvalues --   -0.52604  -0.52407  -0.52391  -0.52091  -0.51781
 Alpha  occ. eigenvalues --   -0.50762  -0.50487  -0.50452  -0.50273  -0.49746
 Alpha  occ. eigenvalues --   -0.49370  -0.49031  -0.48868  -0.48302  -0.48290
 Alpha  occ. eigenvalues --   -0.48141  -0.47822  -0.47731  -0.47642  -0.47635
 Alpha  occ. eigenvalues --   -0.47407  -0.47211  -0.47155  -0.47010  -0.46766
 Alpha  occ. eigenvalues --   -0.46686  -0.46291  -0.46271  -0.46148  -0.46043
 Alpha  occ. eigenvalues --   -0.45896  -0.45632  -0.45405  -0.45361  -0.45210
 Alpha  occ. eigenvalues --   -0.44975  -0.44850  -0.44623  -0.44239  -0.44160
 Alpha  occ. eigenvalues --   -0.44102  -0.43977  -0.43953  -0.43572  -0.43443
 Alpha  occ. eigenvalues --   -0.43251  -0.42907  -0.42878  -0.42726  -0.42673
 Alpha  occ. eigenvalues --   -0.42387  -0.42365  -0.42101  -0.41935  -0.41813
 Alpha  occ. eigenvalues --   -0.41472  -0.41452  -0.41375  -0.41153  -0.41017
 Alpha  occ. eigenvalues --   -0.40898  -0.40836  -0.40652  -0.40332  -0.40277
 Alpha  occ. eigenvalues --   -0.39936  -0.39779  -0.39661  -0.39658  -0.39500
 Alpha  occ. eigenvalues --   -0.39371  -0.39197  -0.39181  -0.38886  -0.38812
 Alpha  occ. eigenvalues --   -0.38678  -0.38655  -0.38457  -0.38389  -0.38166
 Alpha  occ. eigenvalues --   -0.37938  -0.37841  -0.37798  -0.37555  -0.37529
 Alpha  occ. eigenvalues --   -0.37388  -0.37194  -0.37191  -0.37021  -0.36898
 Alpha  occ. eigenvalues --   -0.36691  -0.36394  -0.36321  -0.36179  -0.36073
 Alpha  occ. eigenvalues --   -0.35771  -0.35436  -0.35428  -0.35188  -0.35111
 Alpha  occ. eigenvalues --   -0.34906  -0.34741  -0.34617  -0.34595  -0.34352
 Alpha  occ. eigenvalues --   -0.33716  -0.33635  -0.32684  -0.32636  -0.32407
 Alpha  occ. eigenvalues --   -0.32235  -0.31924  -0.31637  -0.31404  -0.31237
 Alpha  occ. eigenvalues --   -0.30986  -0.30967  -0.29604  -0.29302  -0.29142
 Alpha  occ. eigenvalues --   -0.28970  -0.28702  -0.28614  -0.27123  -0.26907
 Alpha  occ. eigenvalues --   -0.26498  -0.26186  -0.25928  -0.25913  -0.25573
 Alpha  occ. eigenvalues --   -0.25369  -0.24964  -0.24663  -0.20927  -0.20925
 Alpha  occ. eigenvalues --   -0.18870  -0.18640
 Alpha virt. eigenvalues --   -0.11076  -0.10828  -0.05574  -0.05316  -0.04275
 Alpha virt. eigenvalues --   -0.04115  -0.02341  -0.02164  -0.00898   0.00133
 Alpha virt. eigenvalues --    0.00241   0.01107   0.01135   0.01255   0.01485

 Mulliken charges:
               1
     1  Mg  11.995031
     2  C    6.018644
     3  C    5.992806
     4  C    5.983272
     5  C    6.009880
     6  N    7.012688
     7  C    5.973261
     8  C    6.010833
     9  C    5.992154
    10  C    6.031314
    11  C    5.995206
    12  C    6.001393
    13  C    6.002522
    14  H    0.994227
    15  N    6.993348
    16  C    6.032178
    17  C    6.019919
    18  C    6.016435
    19  C    6.027686
    20  C    5.998348
    21  C    6.009033
    22  O    8.026327
    23  C    5.996840
    24  N    6.999471
    25  C    6.028183
    26  C    5.991667
    27  C    6.010001
    28  C    5.971959
    29  C    5.998054
    30  C    6.003887
    31  C    6.000383
    32  N    7.001953
    33  C    5.965298
    34  C    5.972721
    35  C    5.998677
    36  C    5.968481
    37  C    6.001897
    38  C    5.985477
    39  O    7.975618
    40  C    5.989959
    41  C    5.999753
    42  O    7.989211
    43  O    7.999881
    44  C    6.002064
    45  H    1.010684
    46  H    1.004771
    47  H    0.990508
    48  H    0.996669
    49  H    1.001323
    50  H    1.000094
    51  H    1.014180
    52  H    1.000891
    53  H    0.991781
    54  H    1.004826
    55  H    1.004862
    56  H    0.997996
    57  H    1.016145
    58  H    1.015295
    59  H    1.016730
    60  H    1.005493
    61  H    1.009166
    62  H    1.012294
    63  H    1.000234
    64  H    0.998041
    65  H    1.009405
    66  H    0.997915
    67  H    0.996738
    68  H    0.999313
    69  H    0.989988
    70  H    1.002697
    71  H    1.001615
    72  H    0.994852
    73  H    0.981467
    74  H    0.983400
    75  H    0.980342
    76  H    0.993431
    77  H    0.998916
    78  H    0.993880
    79  H    0.996119
    80  Mg  12.000012
    81  C    6.000010
    82  C    6.000074
    83  C    5.999999
    84  C    5.999929
    85  N    7.000071
    86  C    6.000064
    87  C    5.999960
    88  C    6.000024
    89  C    5.999846
    90  C    5.999997
    91  C    5.999977
    92  C    6.000002
    93  H    1.000021
    94  N    7.000003
    95  C    5.999841
    96  C    5.999909
    97  C    5.999938
    98  C    5.999909
    99  C    6.000002
   100  C    5.999941
   101  O    7.999887
   102  C    6.000023
   103  N    6.999937
   104  C    5.999882
   105  C    6.000041
   106  C    5.999971
   107  C    6.000135
   108  C    6.000017
   109  C    5.999974
   110  C    5.999995
   111  N    7.000016
   112  C    6.000149
   113  C    6.000097
   114  C    6.000025
   115  C    6.000100
   116  C    5.999991
   117  C    6.000070
   118  O    8.000144
   119  C    5.999992
   120  C    6.000001
   121  O    8.000017
   122  O    8.000008
   123  C    5.999989
   124  H    0.999971
   125  H    0.999977
   126  H    1.000032
   127  H    1.000010
   128  H    1.000019
   129  H    1.000000
   130  H    0.999942
   131  H    0.999985
   132  H    1.000070
   133  H    1.000000
   134  H    1.000033
   135  H    0.999983
   136  H    0.999922
   137  H    0.999915
   138  H    0.999910
   139  H    0.999982
   140  H    0.999951
   141  H    0.999943
   142  H    1.000007
   143  H    0.999980
   144  H    0.999944
   145  H    0.999975
   146  H    1.000020
   147  H    1.000014
   148  H    1.000053
   149  H    0.999979
   150  H    1.000035
   151  H    0.999992
   152  H    1.000071
   153  H    1.000120
   154  H    1.000059
   155  H    1.000057
   156  H    1.000039
   157  H    1.000016
   158  H    1.000005
 Sum of Mulliken charges = 624.00000

 Dipole moment (field-independent basis, Debye):
    X=             -3.8853    Y=             -3.5740    Z=              8.5308  Tot=             10.0321
 Quadrupole moment (field-independent basis, Debye-Ang):
   XX=           -206.3625   YY=              3.4963   ZZ=              6.0968
   XY=            -91.9160   XZ=            222.7449   YZ=             -8.7377

 Normal termination of Gaussian 16 at Fri Oct 15 13:24:50 2021.
