 Gaussian 16, Revision A.03,
 Gaussian 16:  ES64L-G16RevA.03 25-Dec-2016

 --------------------------------------------------------
 #p PBE1PBE/Def2SVP td=(nstates=5) density=(transition=1)
 --------------------------------------------------------

 --------------------------------
 TDDFT excited states in gaussian
 --------------------------------
 Symbolic Z-matrix:
 Charge =  0 Multiplicity = 1

                         Standard orientation:
 ---------------------------------------------------------------------
 Center     Atomic      Atomic             Coordinates (Angstroms)
 Number     Number       Type             X           Y           Z
 ---------------------------------------------------------------------
      1         12           0       22.366523   -0.619559    0.449651
      2          6           0       22.074786    2.173927   -1.537542
      3          6           0       22.933740    1.503592    3.175285
      4          6           0       22.760335   -3.307196    2.453623
      5          6           0       22.183821   -2.614301   -2.289852
      6          7           0       22.749090    1.615328    0.700400
      7          6           0       22.325468    2.555881   -0.246789
      8          6           0       22.182272    3.965391    0.360653
      9          6           0       22.583413    3.679560    1.854653
     10          6           0       22.730241    2.178423    1.981200
     11          6           0       23.840933    4.422139    2.288430
     12          6           0       20.811195    4.721544    0.249106
     13          6           0       20.773664    6.052891   -0.680298
     14          1           0       20.358484    7.284236    0.130820
     15          7           0       22.879857   -0.882272    2.458732
     16          6           0       22.940014    0.122563    3.437829
     17          6           0       22.985384   -0.449215    4.787642
     18          6           0       23.018322   -1.938729    4.630457
     19          6           0       22.818692   -2.134720    3.139090
     20          6           0       23.038090    0.394498    6.042207
     21          6           0       23.146414   -3.009460    5.608323
     22          8           0       23.248488   -4.184004    5.224523
     23          6           0       23.232131   -2.760102    7.103912
     24          7           0       22.534169   -2.585482    0.090311
     25          6           0       22.561943   -3.575532    1.089922
     26          6           0       22.406811   -5.060080    0.565423
     27          6           0       22.252444   -4.755755   -1.013211
     28          6           0       22.310385   -3.212333   -1.067449
     29          6           0       23.644727   -6.024945    0.914485
     30          6           0       20.920309   -5.346755   -1.590272
     31          6           0       20.950929   -5.932744   -2.967095
     32          7           0       22.269608   -0.263676   -1.563382
     33          6           0       22.143346   -1.206318   -2.587791
     34          6           0       21.864929   -0.572333   -3.830997
     35          6           0       21.730627    0.809251   -3.433276
     36          6           0       22.065292    0.905551   -2.076630
     37          6           0       21.622163   -1.126907   -5.171715
     38          6           0       21.554187    2.131418   -3.947120
     39          8           0       21.283871    2.610949   -5.053728
     40          6           0       21.924409    3.091883   -2.727522
     41          6           0       23.131361    3.881047   -3.090025
     42          8           0       24.243253    3.693602   -2.785615
     43          8           0       22.763476    5.027666   -3.790142
     44          6           0       23.698106    6.129814   -3.695939
     45          1           0       23.021169    2.172503    4.034021
     46          1           0       22.802594   -4.252555    2.998449
     47          1           0       21.974690   -3.254768   -3.149180
     48          1           0       22.947323    4.608498   -0.072997
     49          1           0       21.837172    4.059741    2.552836
     50          1           0       24.624775    3.692875    2.491291
     51          1           0       23.525607    4.901325    3.214493
     52          1           0       24.179135    5.214412    1.620914
     53          1           0       20.501080    4.998321    1.257049
     54          1           0       20.042034    4.083512   -0.186328
     55          1           0       19.962398    5.823367   -1.371371
     56          1           0       21.741357    6.212725   -1.155299
     57          1           0       24.043830    0.813563    6.092260
     58          1           0       22.866712   -0.261120    6.894575
     59          1           0       22.384583    1.266440    6.007397
     60          1           0       23.641856   -3.677266    7.527536
     61          1           0       22.278349   -2.496370    7.562101
     62          1           0       23.986157   -2.053879    7.450905
     63          1           0       21.450823   -5.468306    0.891745
     64          1           0       23.017242   -5.207533   -1.645352
     65          1           0       23.828419   -6.671035    0.055788
     66          1           0       23.485176   -6.762015    1.700546
     67          1           0       24.553056   -5.478318    1.168720
     68          1           0       20.076516   -4.658193   -1.548678
     69          1           0       20.571539   -6.213455   -1.029091
     70          1           0       20.338890   -5.257059   -3.564344
     71          1           0       20.432169   -6.866847   -3.182615
     72          1           0       21.976413   -5.949781   -3.337584
     73          1           0       21.218537   -2.133413   -5.058179
     74          1           0       22.616538   -1.191304   -5.613333
     75          1           0       21.064822   -0.394212   -5.755659
     76          1           0       21.102835    3.780617   -2.532239
     77          1           0       24.504182    5.845001   -4.371264
     78          1           0       24.049459    6.127324   -2.664246
     79          1           0       23.250250    7.065847   -4.030883
     80         12           0      -21.877368   -0.650024   -0.070894
     81          6           0      -23.789254    1.900371    1.452280
     82          6           0      -20.120469    1.609225   -1.709045
     83          6           0      -20.770118   -3.171152   -2.093452
     84          6           0      -24.565058   -2.958960    0.987565
     85          7           0      -22.022996    1.521448   -0.133253
     86          6           0      -22.681008    2.331692    0.721036
     87          6           0      -22.119263    3.761415    0.594910
     88          6           0      -20.973123    3.663090   -0.360096
     89          6           0      -21.035103    2.175126   -0.820291
     90          6           0      -20.989036    4.799340   -1.462804
     91          6           0      -21.775119    4.546639    1.904623
     92          6           0      -20.547085    5.550116    1.999353
     93          1           0      -20.763209    6.909326    2.680717
     94          7           0      -20.428473   -0.770892   -1.515590
     95          6           0      -19.796255    0.320024   -2.068094
     96          6           0      -18.823711   -0.168254   -3.003956
     97          6           0      -18.991549   -1.594933   -3.196048
     98          6           0      -20.126947   -1.891218   -2.294824
     99          6           0      -17.976555    0.817181   -3.701802
    100          6           0      -18.179756   -2.604520   -4.044673
    101          8           0      -18.512917   -3.742260   -4.099900
    102          6           0      -16.842777   -2.226499   -4.593984
    103          7           0      -22.636974   -2.758129   -0.513156
    104          6           0      -21.864003   -3.548243   -1.291647
    105          6           0      -22.405495   -5.011852   -1.363180
    106          6           0      -23.594740   -4.977571   -0.355199
    107          6           0      -23.646256   -3.491169    0.076959
    108          6           0      -22.829059   -5.484033   -2.728637
    109          6           0      -23.531798   -5.921682    0.896075
    110          6           0      -22.667666   -5.543334    2.051154
    111          7           0      -23.787630   -0.670836    0.995651
    112          6           0      -24.664661   -1.651759    1.360462
    113          6           0      -25.670712   -1.093095    2.230414
    114          6           0      -25.403582    0.298574    2.317585
    115          6           0      -24.269883    0.507576    1.506250
    116          6           0      -26.877987   -1.767794    2.779453
    117          6           0      -25.838505    1.558840    2.848597
    118          8           0      -26.749168    1.886436    3.600690
    119          6           0      -24.785854    2.649841    2.354630
    120          6           0      -25.443702    3.874655    1.741780
    121          8           0      -26.085887    3.853093    0.723609
    122          8           0      -25.143062    4.986824    2.511952
    123          6           0      -25.764972    6.216264    2.018940
    124          1           0      -19.362759    2.271226   -2.134321
    125          1           0      -20.326457   -3.934490   -2.735634
    126          1           0      -25.301828   -3.657430    1.389528
    127          1           0      -23.007875    4.240150    0.183445
    128          1           0      -20.061852    3.869293    0.201975
    129          1           0      -21.768130    5.523274   -1.224550
    130          1           0      -21.038587    4.311726   -2.436355
    131          1           0      -20.092502    5.417030   -1.406854
    132          1           0      -21.606464    3.797640    2.678742
    133          1           0      -22.628593    5.117052    2.272046
    134          1           0      -20.241933    5.698289    0.963289
    135          1           0      -19.720775    5.050727    2.505384
    136          1           0      -17.846516    0.426485   -4.710782
    137          1           0      -17.003167    0.802517   -3.212925
    138          1           0      -18.259857    1.866533   -3.785341
    139          1           0      -17.099405   -1.848586   -5.582780
    140          1           0      -16.176664   -3.087608   -4.532197
    141          1           0      -16.363268   -1.379615   -4.102614
    142          1           0      -21.708433   -5.724579   -0.922011
    143          1           0      -24.613545   -5.106163   -0.719365
    144          1           0      -22.508278   -4.791178   -3.507637
    145          1           0      -23.913255   -5.546506   -2.825683
    146          1           0      -22.352623   -6.455046   -2.861404
    147          1           0      -23.215346   -6.917930    0.586939
    148          1           0      -24.557281   -6.129782    1.202166
    149          1           0      -21.884371   -4.862678    1.717045
    150          1           0      -22.084703   -6.291972    2.588084
    151          1           0      -23.355202   -5.131897    2.790833
    152          1           0      -27.560672   -2.166739    2.029751
    153          1           0      -27.511829   -0.962048    3.150589
    154          1           0      -26.619230   -2.511598    3.533552
    155          1           0      -24.216063    2.929789    3.240899
    156          1           0      -24.785016    6.606034    1.745248
    157          1           0      -26.181723    6.663393    2.921124
    158          1           0      -26.468523    6.045518    1.203815
 ---------------------------------------------------------------------

 SCF Done:  E(RPBE1PBE) =  -4067.35003080     A.U. after   16 cycles

 Excitation energies and oscillator strengths:

 Excited State   1:      Singlet-A      1.8121 eV  684.22 nm  f=0.0000  <S**2>=0.000
     312 -> 313        0.70711
 This state for optimization and/or second-order correction.
 Total Energy, E(TD-HF/TD-DFT) =  -4067.28343914
 Copying the excited state density for this state as the 1-particle RhoCI density.

 Excited State   2:      Singlet-A      1.8151 eV  683.07 nm  f=0.3897  <S**2>=0.000
     309 -> 315        0.14966
     311 -> 313        0.69580
     311 <- 313       -0.11535

 Excited State   3:      Singlet-A      1.8611 eV  666.20 nm  f=0.3738  <S**2>=0.000
     310 -> 316        0.17933
     312 -> 314        0.69125
     312 <- 314       -0.10764

 Excited State   4:      Singlet-A      2.1023 eV  589.74 nm  f=0.0000  <S**2>=0.000
     311 -> 314        0.70711

 Excited State   5:      Singlet-A      2.1921 eV  565.60 nm  f=0.1027  <S**2>=0.000
     310 -> 314        0.65384
     312 -> 316       -0.25418

 The electronic state is 1-A.
 Alpha  occ. eigenvalues --  -46.93404 -46.91400 -19.25469 -19.22933 -19.20273
 Alpha  occ. eigenvalues --  -19.19843 -19.19703 -19.18926 -19.18922 -19.18488
 Alpha  occ. eigenvalues --  -14.42085 -14.41765 -14.41599 -14.41259 -14.39914
 Alpha  occ. eigenvalues --  -14.39146 -14.38526 -14.38409 -10.36151 -10.35195
 Alpha  occ. eigenvalues --  -10.32784 -10.32269 -10.31988 -10.31593 -10.29468
 Alpha  occ. eigenvalues --  -10.29297 -10.28891 -10.28880 -10.28677 -10.28585
 Alpha  occ. eigenvalues --  -10.28561 -10.28533 -10.28499 -10.28415 -10.28216
 Alpha  occ. eigenvalues --  -10.28207 -10.27929 -10.27878 -10.27375 -10.27163
 Alpha  occ. eigenvalues --  -10.27142 -10.27095 -10.27040 -10.26804 -10.26369
 Alpha  occ. eigenvalues --  -10.26274 -10.26201 -10.26148 -10.26099 -10.26082
 Alpha  occ. eigenvalues --  -10.25832 -10.25734 -10.25600 -10.25579 -10.25507
 Alpha  occ. eigenvalues --  -10.25464 -10.25414 -10.25307 -10.25248 -10.25174
 Alpha  occ. eigenvalues --  -10.25118 -10.25090 -10.24945 -10.24901 -10.24448
 Alpha  occ. eigenvalues --  -10.24424 -10.24412 -10.24348 -10.24238 -10.24016
 Alpha  occ. eigenvalues --  -10.23989 -10.23979 -10.23918 -10.23845 -10.23798
 Alpha  occ. eigenvalues --  -10.23788 -10.23629 -10.23611 -10.23394 -10.23358
 Alpha  occ. eigenvalues --  -10.22864 -10.22854 -10.22690 -10.22575 -10.22565
 Alpha  occ. eigenvalues --  -10.22386  -3.15297  -3.13734  -1.88107  -1.87678
 Alpha  occ. eigenvalues --   -1.87509  -1.86545  -1.86119  -1.85975  -1.11630
 Alpha  occ. eigenvalues --   -1.11094  -1.07597  -1.04118  -1.04011  -1.03412
 Alpha  occ. eigenvalues --   -1.03106  -1.02679  -0.99538  -0.98839  -0.98118
 Alpha  occ. eigenvalues --   -0.97795  -0.97139  -0.96657  -0.96490  -0.95138
 Alpha  occ. eigenvalues --   -0.87127  -0.85996  -0.83567  -0.83503  -0.83161
 Alpha  occ. eigenvalues --   -0.82951  -0.82791  -0.82561  -0.81807  -0.81705
 Alpha  occ. eigenvalues --   -0.81608  -0.81431  -0.80832  -0.80464  -0.78507
 Alpha  occ. eigenvalues --   -0.78280  -0.77966  -0.77865  -0.76703  -0.76675
 Alpha  occ. eigenvalues --   -0.76251  -0.75985  -0.75282  -0.75176  -0.74776
 Alpha  occ. eigenvalues --   -0.74645  -0.72992  -0.72595  -0.71786  -0.71452
 Alpha  occ. eigenvalues --   -0.71412  -0.71052  -0.70213  -0.69661  -0.69621
 Alpha  occ. eigenvalues --   -0.69036  -0.67609  -0.66813  -0.66153  -0.65886
 Alpha  occ. eigenvalues --   -0.64113  -0.63658  -0.63653  -0.63164  -0.62715
 Alpha  occ. eigenvalues --   -0.62465  -0.61982  -0.61338  -0.60162  -0.59842
 Alpha  occ. eigenvalues --   -0.59499  -0.59491  -0.58788  -0.58654  -0.58551
 Alpha  occ. eigenvalues --   -0.58525  -0.56283  -0.55522  -0.54666  -0.54543
 Alpha  occ. eigenvalues --   -0.54105  -0.54037  -0.53654  -0.53398  -0.53194
 Alpha  occ. eigenvalues --   -0.52949  -0.52921  -0.52567  -0.52265  -0.51955
 Alpha  occ. eigenvalues --   -0.51089  -0.50624  -0.50432  -0.50139  -0.49926
 Alpha  occ. eigenvalues --   -0.49825  -0.49620  -0.49184  -0.48643  -0.48560
 Alpha  occ. eigenvalues --   -0.48352  -0.48172  -0.47808  -0.47759  -0.47615
 Alpha  occ. eigenvalues --   -0.47427  -0.47356  -0.46969  -0.46843  -0.46451
 Alpha  occ. eigenvalues --   -0.46389  -0.46250  -0.46020  -0.45868  -0.45739
 Alpha  occ. eigenvalues --   -0.45508  -0.45433  -0.45382  -0.45195  -0.45186
 Alpha  occ. eigenvalues --   -0.44859  -0.44822  -0.44664  -0.44518  -0.44443
 Alpha  occ. eigenvalues --   -0.44171  -0.44151  -0.43880  -0.43644  -0.43518
 Alpha  occ. eigenvalues --   -0.43397  -0.43311  -0.43292  -0.43247  -0.42941
 Alpha  occ. eigenvalues --   -0.42809  -0.42714  -0.42331  -0.41969  -0.41918
 Alpha  occ. eigenvalues --   -0.41858  -0.41694  -0.41587  -0.41484  -0.41211
 Alpha  occ. eigenvalues --   -0.41004  -0.40844  -0.40785  -0.40513  -0.40295
 Alpha  occ. eigenvalues --   -0.40193  -0.40191  -0.40103  -0.39842  -0.39493
 Alpha  occ. eigenvalues --   -0.39374  -0.39336  -0.39095  -0.39063  -0.38879
 Alpha  occ. eigenvalues --   -0.38518  -0.38474  -0.38404  -0.38389  -0.38193
 Alpha  occ. eigenvalues --   -0.38118  -0.37842  -0.37831  -0.37807  -0.37708
 Alpha  occ. eigenvalues --   -0.37494  -0.37283  -0.37217  -0.36916  -0.36853
 Alpha  occ. eigenvalues --   -0.36739  -0.36613  -0.36439  -0.36329  -0.36092
 Alpha  occ. eigenvalues --   -0.35961  -0.35770  -0.35566  -0.35504  -0.35134
 Alpha  occ. eigenvalues --   -0.35016  -0.34882  -0.34100  -0.34050  -0.33914
 Alpha  occ. eigenvalues --   -0.33746  -0.33071  -0.32858  -0.32841  -0.32748
 Alpha  occ. eigenvalues --   -0.32395  -0.32196  -0.31985  -0.31214  -0.30893
 Alpha  occ. eigenvalues --   -0.30796  -0.29880  -0.29713  -0.29550  -0.29224
 Alpha  occ. eigenvalues --   -0.28822  -0.28688  -0.28655  -0.27137  -0.26547
 Alpha  occ. eigenvalues --   -0.26465  -0.26100  -0.25609  -0.25571  -0.25405
 Alpha  occ. eigenvalues --   -0.25295  -0.25035  -0.24854  -0.21332  -0.20774
 Alpha  occ. eigenvalues --   -0.19119  -0.18700
 Alpha virt. eigenvalues --   -0.11747  -0.11098  -0.05832  -0.05103  -0.04301
 Alpha virt. eigenvalues --   -0.03790  -0.02234  -0.01965  -0.01669  -0.00598
 Alpha virt. eigenvalues --    0.00309   0.00773   0.00953   0.01159   0.01645

 Mulliken charges:
               1
     1  Mg  12.000000
     2  C    6.000000
     3  C    6.000000
     4  C    6.000000
     5  C    6.000000
     6  N    7.000000
     7  C    6.000000
     8  C    6.000000
     9  C    6.000000
    10  C    6.000000
    11  C    6.000000
    12  C    6.000000
    13  C    6.000000
    14  H    1.000000
    15  N    7.000000
    16  C    6.000000
    17  C    6.000000
    18  C    6.000000
    19  C    6.000000
    20  C    6.000000
    21  C    6.000000
    22  O    8.000000
    23  C    6.000000
    24  N    7.000000
    25  C    6.000000
    26  C    6.000000
    27  C    6.000000
    28  C    6.000000
    29  C    6.000000
    30  C    6.000000
    31  C    6.000000
    32  N    7.000000
    33  C    6.000000
    34  C    6.000000
    35  C    6.000000
    36  C    6.000000
    37  C    6.000000
    38  C    6.000000
    39  O    8.000000
    40  C    6.000000
    41  C    6.000000
    42  O    8.000000
    43  O    8.000000
    44  C    6.000000
    45  H    1.000000
    46  H    1.000000
    47  H    1.000000
    48  H    1.000000
    49  H    1.000000
    50  H    1.000000
    51  H    1.000000
    52  H    1.000000
    53  H    1.000000
    54  H    1.000000
    55  H    1.000000
    56  H    1.000000
    57  H    1.000000
    58  H    1.000000
    59  H    1.000000
    60  H    1.000000
    61  H    1.000000
    62  H    1.000000
    63  H    1.000000
    64  H    1.000000
    65  H    1.000000
    66  H    1.000000
    67  H    1.000000
    68  H    1.000000
    69  H    1.000000
    70  H    1.000000
    71  H    1.000000
    72  H    1.000000
    73  H    1.000000
    74  H    1.000000
    75  H    1.000000
    76  H    1.000000
    77  H    1.000000
    78  H    1.000000
    79  H    1.000000
    80  Mg  12.000000
    81  C    6.000000
    82  C    6.000000
    83  C    6.000000
    84  C    6.000000
    85  N    7.000000
    86  C    6.000000
    87  C    6.000000
    88  C    6.000000
    89  C    6.000000
    90  C    6.000000
    91  C    6.000000
    92  C    6.000000
    93  H    1.000000
    94  N    7.000000
    95  C    6.000000
    96  C    6.000000
    97  C    6.000000
    98  C    6.000000
    99  C    6.000000
   100  C    6.000000
   101  O    8.000000
   102  C    6.000000
   103  N    7.000000
   104  C    6.000000
   105  C    6.000000
   106  C    6.000000
   107  C    6.000000
   108  C    6.000000
   109  C    6.000000
   110  C    6.000000
   111  N    7.000000
   112  C    6.000000
   113  C    6.000000
   114  C    6.000000
   115  C    6.000000
   116  C    6.000000
   117  C    6.000000
   118  O    8.000000
   119  C    6.000000
   120  C    6.000000
   121  O    8.000000
   122  O    8.000000
   123  C    6.000000
   124  H    1.000000
   125  H    1.000000
   126  H    1.000000
   127  H    1.000000
   128  H    1.000000
   129  H    1.000000
   130  H    1.000000
   131  H    1.000000
   132  H    1.000000
   133  H    1.000000
   134  H    1.000000
   135  H    1.000000
   136  H    1.000000
   137  H    1.000000
   138  H    1.000000
   139  H    1.000000
   140  H    1.000000
   141  H    1.000000
   142  H    1.000000
   143  H    1.000000
   144  H    1.000000
   145  H    1.000000
   146  H    1.000000
   147  H    1.000000
   148  H    1.000000
   149  H    1.000000
   150  H    1.000000
   151  H    1.000000
   152  H    1.000000
   153  H    1.000000
   154  H    1.000000
   155  H    1.000000
   156  H    1.000000
   157  H    1.000000
   158  H    1.000000
 Sum of Mulliken charges = 624.00000

 Dipole moment (field-independent basis, Debye):
    X=              0.0000    Y=             -0.0000    Z=              0.0000  Tot=              0.0000
 Quadrupole moment (field-independent basis, Debye-Ang):
   XX=             -0.0000   YY=             -0.0000   ZZ=              0.0000
   XY=             -0.0000   XZ=              0.0000   YZ=             -0.0000

 Normal termination of Gaussian 16 at Fri Oct 15 12:52:31 2021.
