 Gaussian 16, Revision A.03,
 Gaussian 16:  ES64L-G16RevA.03 25-Dec-2016

 --------------------------------------------------------
 #p PBE1PBE/Def2SVP td=(nstates=5) density=(transition=1)
 --------------------------------------------------------

 --------------------------------
 TDDFT excited states in gaussian
 --------------------------------
 Symbolic Z-matrix:
 Charge =  0 Multiplicity = 1

                         Standard orientation:
 ---------------------------------------------------------------------
 Center     Atomic      Atomic             Coordinates (Angstroms)
 Number     Number       Type             X           Y           Z
 ---------------------------------------------------------------------
      1         12           0      -24.070942   -0.715215   -0.086085
      2          6           0      -25.476014    2.312333    0.550491
      3          6           0      -22.354220    0.420432   -2.854883
      4          6           0      -22.937963   -3.897989   -0.642565
      5          6           0      -26.152676   -2.122110    2.517358
      6          7           0      -24.111399    1.094017   -1.138839
      7          6           0      -24.567809    2.320812   -0.550152
      8          6           0      -24.023551    3.487672   -1.272621
      9          6           0      -23.391418    2.791724   -2.560359
     10          6           0      -23.258585    1.326818   -2.208230
     11          6           0      -24.284826    2.981826   -3.886208
     12          6           0      -23.122791    4.426788   -0.412813
     13          6           0      -23.387291    5.888978   -0.575635
     14          1           0      -23.693401    6.380242   -2.045274
     15          7           0      -22.757889   -1.600702   -1.508889
     16          6           0      -22.200841   -0.920158   -2.550485
     17          6           0      -21.380952   -1.834351   -3.269005
     18          6           0      -21.440110   -3.121902   -2.605732
     19          6           0      -22.371787   -2.924800   -1.445133
     20          6           0      -20.672297   -1.444530   -4.584628
     21          6           0      -20.760178   -4.432388   -2.852033
     22          8           0      -20.954069   -5.516378   -2.290398
     23          6           0      -19.617624   -4.399599   -3.936432
     24          7           0      -24.566100   -2.803255    0.754906
     25          6           0      -23.891770   -3.874018    0.416890
     26          6           0      -24.138330   -5.042632    1.368828
     27          6           0      -25.169880   -4.453384    2.372864
     28          6           0      -25.332795   -3.028176    1.848224
     29          6           0      -24.678866   -6.372738    0.634311
     30          6           0      -24.543524   -4.498822    3.836024
     31          6           0      -23.323593   -3.621189    4.210248
     32          7           0      -25.644804   -0.091347    1.164895
     33          6           0      -26.319742   -0.755424    2.171709
     34          6           0      -27.122427    0.264533    2.876815
     35          6           0      -26.859962    1.488159    2.337932
     36          6           0      -25.931987    1.202741    1.271607
     37          6           0      -28.164703   -0.050052    3.893909
     38          6           0      -27.133431    2.924529    2.377432
     39          8           0      -27.870295    3.582792    3.092382
     40          6           0      -26.233155    3.492128    1.193924
     41          6           0      -27.148578    4.079784    0.194763
     42          8           0      -28.097744    3.530036   -0.390754
     43          8           0      -26.714127    5.383697    0.068607
     44          6           0      -27.357102    6.135664   -1.016922
     45          1           0      -21.754004    0.751959   -3.704582
     46          1           0      -22.447339   -4.860659   -0.804801
     47          1           0      -26.729717   -2.513560    3.356997
     48          1           0      -24.904885    4.069360   -1.545745
     49          1           0      -22.399152    3.214498   -2.714788
     50          1           0      -25.048940    3.753334   -3.791308
     51          1           0      -24.871144    2.068469   -3.985773
     52          1           0      -23.542384    3.097145   -4.674789
     53          1           0      -22.075166    4.261509   -0.664499
     54          1           0      -23.364759    4.120803    0.604893
     55          1           0      -22.531148    6.509000   -0.312678
     56          1           0      -24.151529    6.399833    0.010247
     57          1           0      -19.777229   -0.831712   -4.478461
     58          1           0      -21.474228   -0.963523   -5.144417
     59          1           0      -20.245611   -2.300142   -5.107608
     60          1           0      -20.071036   -4.318015   -4.924321
     61          1           0      -18.932992   -5.221316   -3.727084
     62          1           0      -18.919587   -3.571724   -3.810389
     63          1           0      -23.209565   -5.259971    1.895794
     64          1           0      -26.113099   -4.999035    2.400921
     65          1           0      -23.838806   -7.068132    0.623625
     66          1           0      -24.961227   -6.145425   -0.394159
     67          1           0      -25.495707   -6.940700    1.077778
     68          1           0      -24.293324   -5.495272    4.199786
     69          1           0      -25.367870   -4.093348    4.423567
     70          1           0      -23.739704   -2.949882    4.961574
     71          1           0      -22.897891   -3.103963    3.351303
     72          1           0      -22.493137   -4.179717    4.642029
     73          1           0      -28.120412    0.816441    4.552984
     74          1           0      -27.971071   -0.981509    4.426208
     75          1           0      -29.133505    0.089075    3.415933
     76          1           0      -25.724404    4.291786    1.731623
     77          1           0      -26.963147    7.140306   -0.860607
     78          1           0      -28.421144    6.146695   -0.780695
     79          1           0      -27.263782    5.703656   -2.013510
     80         12           0       24.622640   -0.564884    0.028647
     81          6           0       23.483452    2.680527    0.710060
     82          6           0       24.783034    0.297919   -3.300625
     83          6           0       25.663582   -3.634718   -0.591226
     84          6           0       24.244175   -1.308888    3.441258
     85          7           0       24.252540    1.315305   -1.082813
     86          6           0       23.767196    2.544220   -0.635351
     87          6           0       23.918702    3.700460   -1.700160
     88          6           0       24.175586    2.850232   -2.929317
     89          6           0       24.434032    1.372130   -2.420235
     90          6           0       22.881445    2.802574   -3.864296
     91          6           0       25.245925    4.461758   -1.256394
     92          6           0       25.229612    6.051713   -1.333048
     93          1           0       24.366174    6.495174   -2.486254
     94          7           0       24.993526   -1.537594   -1.680806
     95          6           0       25.007014   -1.057540   -2.921157
     96          6           0       25.407928   -2.041319   -3.891787
     97          6           0       25.846568   -3.144288   -3.132684
     98          6           0       25.449448   -2.826403   -1.709450
     99          6           0       25.429210   -1.859779   -5.365319
    100          6           0       26.634969   -4.370342   -3.544852
    101          8           0       27.168182   -5.131150   -2.729218
    102          6           0       26.705553   -4.771876   -5.020786
    103          7           0       24.862375   -2.259771    1.282455
    104          6           0       25.393379   -3.395069    0.717134
    105          6           0       25.701852   -4.390845    1.833219
    106          6           0       25.354441   -3.598556    3.186324
    107          6           0       24.842454   -2.287049    2.651386
    108          6           0       24.949117   -5.741725    1.564631
    109          6           0       26.468358   -3.468240    4.213269
    110          6           0       26.060455   -3.934965    5.645734
    111          7           0       23.973615    0.457563    1.720758
    112          6           0       23.851375    0.010085    3.073701
    113          6           0       23.326022    1.045035    3.890626
    114          6           0       23.175609    2.107770    2.983873
    115          6           0       23.535063    1.667975    1.692976
    116          6           0       23.037874    1.080419    5.356967
    117          6           0       22.782862    3.473817    2.847384
    118          8           0       22.340957    4.283307    3.628530
    119          6           0       23.079710    3.907413    1.383946
    120          6           0       21.892038    4.615961    0.841403
    121          8           0       20.804466    4.133228    0.538767
    122          8           0       22.244218    5.895662    0.684148
    123          6           0       21.264824    6.776427    0.082982
    124          1           0       25.009722    0.473511   -4.354178
    125          1           0       26.001707   -4.637388   -0.864628
    126          1           0       24.170075   -1.476524    4.517824
    127          1           0       23.040744    4.329433   -1.556185
    128          1           0       25.057114    3.210419   -3.458615
    129          1           0       22.044367    3.360923   -3.444729
    130          1           0       22.587153    1.760432   -3.987028
    131          1           0       23.225679    3.219750   -4.810705
    132          1           0       26.120239    4.180750   -1.842767
    133          1           0       25.458465    4.129044   -0.240071
    134          1           0       26.201546    6.429692   -1.650399
    135          1           0       25.112227    6.498916   -0.345627
    136          1           0       26.479051   -1.858126   -5.661608
    137          1           0       25.002473   -0.900483   -5.654816
    138          1           0       24.906276   -2.648018   -5.906094
    139          1           0       26.992012   -5.817404   -4.909503
    140          1           0       27.411903   -4.183037   -5.607159
    141          1           0       25.766084   -4.821984   -5.570903
    142          1           0       26.742912   -4.703835    1.912266
    143          1           0       24.515271   -4.099490    3.669155
    144          1           0       25.684569   -6.526762    1.740857
    145          1           0       24.496354   -5.807817    0.575269
    146          1           0       24.259119   -5.977558    2.375665
    147          1           0       26.887116   -2.465758    4.295650
    148          1           0       27.191430   -4.227286    3.911414
    149          1           0       25.069441   -4.389010    5.635725
    150          1           0       25.893331   -3.089091    6.312260
    151          1           0       26.775957   -4.652628    6.047658
    152          1           0       24.045224    1.153240    5.767832
    153          1           0       22.469285    0.178601    5.582908
    154          1           0       22.506103    1.982499    5.656290
    155          1           0       23.847805    4.672369    1.505411
    156          1           0       20.324772    6.717800    0.632298
    157          1           0       20.962711    6.550142   -0.940132
    158          1           0       21.678984    7.782183    0.156138
 ---------------------------------------------------------------------

 SCF Done:  E(RPBE1PBE) =  -4067.39717578     A.U. after   17 cycles

 Excitation energies and oscillator strengths:

 Excited State   1:      Singlet-A      1.8382 eV  674.49 nm  f=0.3701  <S**2>=0.000
     309 -> 315        0.17969
     312 -> 314        0.69183
     312 <- 314       -0.10365
 This state for optimization and/or second-order correction.
 Total Energy, E(TD-HF/TD-DFT) =  -4067.32962311
 Copying the excited state density for this state as the 1-particle RhoCI density.

 Excited State   2:      Singlet-A      1.8615 eV  666.05 nm  f=0.3687  <S**2>=0.000
     310 -> 316       -0.15512
     311 -> 313        0.69390
     311 <- 313       -0.10802

 Excited State   3:      Singlet-A      1.9912 eV  622.66 nm  f=0.0000  <S**2>=0.000
     312 -> 313        0.70711

 Excited State   4:      Singlet-A      2.0024 eV  619.19 nm  f=0.0000  <S**2>=0.000
     311 -> 314        0.70711

 Excited State   5:      Singlet-A      2.2557 eV  549.64 nm  f=0.0510  <S**2>=0.000
     309 -> 314        0.62869
     312 -> 315       -0.31571

 The electronic state is 1-A.
 Alpha  occ. eigenvalues --  -46.92641 -46.91176 -19.26357 -19.25988 -19.20555
 Alpha  occ. eigenvalues --  -19.19940 -19.19915 -19.19549 -19.19142 -19.17905
 Alpha  occ. eigenvalues --  -14.41971 -14.41785 -14.41577 -14.41144 -14.39716
 Alpha  occ. eigenvalues --  -14.39225 -14.39083 -14.38270 -10.36604 -10.35428
 Alpha  occ. eigenvalues --  -10.33147 -10.32713 -10.32665 -10.30529 -10.29638
 Alpha  occ. eigenvalues --  -10.29588 -10.29450 -10.29086 -10.28653 -10.28510
 Alpha  occ. eigenvalues --  -10.28450 -10.28404 -10.28230 -10.28110 -10.28094
 Alpha  occ. eigenvalues --  -10.27957 -10.27921 -10.27608 -10.27338 -10.27034
 Alpha  occ. eigenvalues --  -10.26731 -10.26650 -10.26585 -10.26570 -10.26371
 Alpha  occ. eigenvalues --  -10.26306 -10.26301 -10.26155 -10.26093 -10.25879
 Alpha  occ. eigenvalues --  -10.25748 -10.25574 -10.25424 -10.25410 -10.25402
 Alpha  occ. eigenvalues --  -10.25392 -10.25376 -10.25376 -10.25179 -10.25141
 Alpha  occ. eigenvalues --  -10.25083 -10.25073 -10.25038 -10.24996 -10.24968
 Alpha  occ. eigenvalues --  -10.24839 -10.24731 -10.24439 -10.24421 -10.24221
 Alpha  occ. eigenvalues --  -10.24080 -10.23947 -10.23924 -10.23737 -10.23725
 Alpha  occ. eigenvalues --  -10.23474 -10.23432 -10.23422 -10.23338 -10.23194
 Alpha  occ. eigenvalues --  -10.23125 -10.23005 -10.22950 -10.22942 -10.22661
 Alpha  occ. eigenvalues --  -10.21648  -3.14630  -3.13461  -1.87473  -1.86994
 Alpha  occ. eigenvalues --   -1.86853  -1.86314  -1.85816  -1.85716  -1.11991
 Alpha  occ. eigenvalues --   -1.10773  -1.05093  -1.04855  -1.04366  -1.04155
 Alpha  occ. eigenvalues --   -1.02328  -1.01998  -0.99769  -0.99463  -0.98757
 Alpha  occ. eigenvalues --   -0.98596  -0.97528  -0.97438  -0.97020  -0.96319
 Alpha  occ. eigenvalues --   -0.87179  -0.86826  -0.83850  -0.83404  -0.83100
 Alpha  occ. eigenvalues --   -0.82704  -0.82693  -0.82302  -0.82247  -0.81717
 Alpha  occ. eigenvalues --   -0.81557  -0.81256  -0.80955  -0.80402  -0.78949
 Alpha  occ. eigenvalues --   -0.78298  -0.77859  -0.77682  -0.76687  -0.76569
 Alpha  occ. eigenvalues --   -0.75996  -0.75882  -0.75558  -0.75485  -0.74692
 Alpha  occ. eigenvalues --   -0.74134  -0.73052  -0.72345  -0.71837  -0.71679
 Alpha  occ. eigenvalues --   -0.71476  -0.71136  -0.70155  -0.69958  -0.69323
 Alpha  occ. eigenvalues --   -0.69313  -0.67619  -0.66942  -0.66655  -0.65831
 Alpha  occ. eigenvalues --   -0.64187  -0.63653  -0.63484  -0.63259  -0.62846
 Alpha  occ. eigenvalues --   -0.62079  -0.61836  -0.61803  -0.59821  -0.59817
 Alpha  occ. eigenvalues --   -0.59734  -0.59577  -0.59478  -0.59226  -0.59108
 Alpha  occ. eigenvalues --   -0.58945  -0.57128  -0.57117  -0.55220  -0.54832
 Alpha  occ. eigenvalues --   -0.54205  -0.54001  -0.53725  -0.53502  -0.53385
 Alpha  occ. eigenvalues --   -0.53235  -0.52508  -0.52370  -0.52116  -0.51906
 Alpha  occ. eigenvalues --   -0.51185  -0.50559  -0.50232  -0.50097  -0.49881
 Alpha  occ. eigenvalues --   -0.49532  -0.49453  -0.49048  -0.49034  -0.48464
 Alpha  occ. eigenvalues --   -0.48127  -0.48056  -0.47931  -0.47677  -0.47457
 Alpha  occ. eigenvalues --   -0.47228  -0.47096  -0.46984  -0.46919  -0.46751
 Alpha  occ. eigenvalues --   -0.46481  -0.46424  -0.46317  -0.46219  -0.45982
 Alpha  occ. eigenvalues --   -0.45654  -0.45528  -0.45406  -0.45280  -0.45137
 Alpha  occ. eigenvalues --   -0.44895  -0.44581  -0.44537  -0.44287  -0.44265
 Alpha  occ. eigenvalues --   -0.43967  -0.43838  -0.43479  -0.43313  -0.43263
 Alpha  occ. eigenvalues --   -0.43205  -0.43118  -0.43069  -0.42879  -0.42761
 Alpha  occ. eigenvalues --   -0.42600  -0.42368  -0.42345  -0.42204  -0.42089
 Alpha  occ. eigenvalues --   -0.42005  -0.41907  -0.41607  -0.41546  -0.41353
 Alpha  occ. eigenvalues --   -0.41342  -0.41068  -0.40883  -0.40814  -0.40606
 Alpha  occ. eigenvalues --   -0.40315  -0.40076  -0.39947  -0.39912  -0.39540
 Alpha  occ. eigenvalues --   -0.39503  -0.39316  -0.39305  -0.39305  -0.39083
 Alpha  occ. eigenvalues --   -0.38751  -0.38564  -0.38254  -0.38213  -0.38017
 Alpha  occ. eigenvalues --   -0.37916  -0.37742  -0.37686  -0.37654  -0.37574
 Alpha  occ. eigenvalues --   -0.37448  -0.37274  -0.37097  -0.37066  -0.36889
 Alpha  occ. eigenvalues --   -0.36859  -0.36801  -0.36511  -0.36505  -0.36430
 Alpha  occ. eigenvalues --   -0.36005  -0.35675  -0.35667  -0.35389  -0.35370
 Alpha  occ. eigenvalues --   -0.35021  -0.34733  -0.34674  -0.34480  -0.33733
 Alpha  occ. eigenvalues --   -0.33305  -0.32861  -0.32667  -0.32525  -0.32429
 Alpha  occ. eigenvalues --   -0.32152  -0.31967  -0.31738  -0.31511  -0.31479
 Alpha  occ. eigenvalues --   -0.31380  -0.31358  -0.29635  -0.29489  -0.29383
 Alpha  occ. eigenvalues --   -0.29039  -0.29020  -0.28182  -0.27215  -0.26877
 Alpha  occ. eigenvalues --   -0.26479  -0.26401  -0.26337  -0.25950  -0.25656
 Alpha  occ. eigenvalues --   -0.25437  -0.25317  -0.24630  -0.21300  -0.21031
 Alpha  occ. eigenvalues --   -0.18697  -0.18664
 Alpha virt. eigenvalues --   -0.11078  -0.11066  -0.05793  -0.05336  -0.04452
 Alpha virt. eigenvalues --   -0.03553  -0.02275  -0.01636  -0.00866   0.00068
 Alpha virt. eigenvalues --    0.00534   0.00803   0.01042   0.01425   0.01742

 Mulliken charges:
               1
     1  Mg  12.003033
     2  C    6.019948
     3  C    5.980628
     4  C    5.996750
     5  C    6.016325
     6  N    7.002018
     7  C    5.964819
     8  C    6.011896
     9  C    5.989827
    10  C    6.034689
    11  C    5.999055
    12  C    6.002440
    13  C    6.003972
    14  H    0.991628
    15  N    6.992524
    16  C    6.035818
    17  C    6.021482
    18  C    6.016644
    19  C    6.024118
    20  C    5.999945
    21  C    6.012138
    22  O    8.030235
    23  C    5.995719
    24  N    7.003195
    25  C    6.025347
    26  C    5.991071
    27  C    6.010605
    28  C    5.967671
    29  C    5.998937
    30  C    6.002179
    31  C    6.004245
    32  N    7.002127
    33  C    5.957556
    34  C    5.973711
    35  C    5.996994
    36  C    5.969396
    37  C    6.001364
    38  C    5.982364
    39  O    7.973468
    40  C    5.997953
    41  C    5.996942
    42  O    7.995620
    43  O    7.998339
    44  C    6.001446
    45  H    1.007363
    46  H    1.006847
    47  H    0.991886
    48  H    0.998816
    49  H    1.000797
    50  H    1.013587
    51  H    1.000272
    52  H    0.999001
    53  H    0.988055
    54  H    1.005028
    55  H    0.996449
    56  H    1.003221
    57  H    1.019383
    58  H    1.014294
    59  H    1.012447
    60  H    1.008675
    61  H    1.013709
    62  H    1.007684
    63  H    1.000121
    64  H    0.997686
    65  H    0.997861
    66  H    0.996936
    67  H    1.008938
    68  H    0.990743
    69  H    1.004399
    70  H    1.005387
    71  H    0.991600
    72  H    0.993481
    73  H    0.985600
    74  H    0.982422
    75  H    0.980740
    76  H    0.992720
    77  H    0.995705
    78  H    0.998649
    79  H    0.993317
    80  Mg  12.000012
    81  C    5.999783
    82  C    5.999951
    83  C    6.000242
    84  C    6.000014
    85  N    6.999850
    86  C    6.000233
    87  C    5.999986
    88  C    6.000021
    89  C    5.999909
    90  C    6.000017
    91  C    5.999987
    92  C    5.999981
    93  H    1.000013
    94  N    7.000041
    95  C    5.999846
    96  C    5.999850
    97  C    5.999991
    98  C    5.999698
    99  C    6.000035
   100  C    5.999942
   101  O    7.999862
   102  C    6.000026
   103  N    7.000046
   104  C    5.999746
   105  C    6.000086
   106  C    5.999936
   107  C    6.000138
   108  C    6.000011
   109  C    5.999955
   110  C    5.999997
   111  N    6.999998
   112  C    6.000180
   113  C    6.000117
   114  C    6.000094
   115  C    6.000155
   116  C    5.999998
   117  C    6.000028
   118  O    8.000201
   119  C    6.000067
   120  C    6.000009
   121  O    8.000002
   122  O    8.000025
   123  C    5.999997
   124  H    0.999937
   125  H    0.999975
   126  H    1.000096
   127  H    0.999969
   128  H    1.000004
   129  H    0.999904
   130  H    0.999993
   131  H    0.999979
   132  H    1.000070
   133  H    0.999978
   134  H    1.000045
   135  H    0.999992
   136  H    0.999918
   137  H    0.999898
   138  H    0.999870
   139  H    0.999928
   140  H    0.999970
   141  H    0.999925
   142  H    1.000015
   143  H    1.000003
   144  H    1.000005
   145  H    1.000011
   146  H    0.999944
   147  H    1.000019
   148  H    1.000082
   149  H    0.999995
   150  H    0.999998
   151  H    1.000056
   152  H    1.000114
   153  H    1.000060
   154  H    1.000079
   155  H    1.000046
   156  H    0.999990
   157  H    1.000011
   158  H    1.000045
 Sum of Mulliken charges = 624.00000

 Dipole moment (field-independent basis, Debye):
    X=              6.5785    Y=             -4.4577    Z=             -6.5600  Tot=             10.3045
 Quadrupole moment (field-independent basis, Debye-Ang):
   XX=           -319.2978   YY=              4.9726   ZZ=              2.9678
   XY=            102.9688   XZ=            159.2941   YZ=              7.4164

 Normal termination of Gaussian 16 at Wed Oct 13 22:23:56 2021.
