 Gaussian 16, Revision A.03,
 Gaussian 16:  ES64L-G16RevA.03 25-Dec-2016

 --------------------------------------------------------
 #p PBE1PBE/Def2SVP td=(nstates=5) density=(transition=1)
 --------------------------------------------------------

 --------------------------------
 TDDFT excited states in gaussian
 --------------------------------
 Symbolic Z-matrix:
 Charge =  0 Multiplicity = 1

                         Standard orientation:
 ---------------------------------------------------------------------
 Center     Atomic      Atomic             Coordinates (Angstroms)
 Number     Number       Type             X           Y           Z
 ---------------------------------------------------------------------
      1         12           0       24.079128   -0.791055    0.139691
      2          6           0       24.140858    2.458107   -1.154445
      3          6           0       24.188078    0.398950    3.196121
      4          6           0       24.777507   -3.948821    1.299252
      5          6           0       24.478597   -2.060491   -3.130549
      6          7           0       24.052345    1.185777    0.869588
      7          6           0       24.012518    2.398331    0.217017
      8          6           0       23.788658    3.553779    1.183990
      9          6           0       24.039640    2.860979    2.561731
     10          6           0       23.988308    1.413243    2.217054
     11          6           0       25.224116    3.279243    3.405880
     12          6           0       22.418586    4.287303    1.025607
     13          6           0       22.197074    5.468540    1.976597
     14          1           0       21.779672    6.779625    1.326728
     15          7           0       24.513481   -1.681942    2.086246
     16          6           0       24.357183   -1.005168    3.243081
     17          6           0       24.490821   -1.916543    4.345576
     18          6           0       24.774171   -3.181204    3.801637
     19          6           0       24.708242   -2.963943    2.330817
     20          6           0       24.401726   -1.501608    5.799006
     21          6           0       24.980192   -4.492497    4.486492
     22          8           0       25.371816   -5.561496    3.946371
     23          6           0       24.667921   -4.637341    5.970904
     24          7           0       24.577879   -2.680654   -0.774211
     25          6           0       24.883250   -3.796723   -0.072227
     26          6           0       24.976570   -5.064362   -1.081042
     27          6           0       24.407777   -4.461175   -2.413193
     28          6           0       24.408364   -2.996600   -2.112872
     29          6           0       26.474661   -5.557518   -1.150695
     30          6           0       22.906976   -4.881690   -2.621226
     31          6           0       21.907669   -4.657019   -1.497097
     32          7           0       24.220518    0.012465   -1.842456
     33          6           0       24.372894   -0.657193   -3.025425
     34          6           0       24.402581    0.298683   -4.032746
     35          6           0       24.341148    1.582430   -3.418145
     36          6           0       24.231383    1.354311   -2.071622
     37          6           0       24.592827    0.110971   -5.496611
     38          6           0       24.355275    3.052258   -3.595312
     39          8           0       24.490428    3.784015   -4.569282
     40          6           0       24.120413    3.674083   -2.111164
     41          6           0       25.072772    4.787252   -1.854943
     42          8           0       26.268865    4.826317   -2.270603
     43          8           0       24.381291    5.761824   -1.279741
     44          6           0       25.006476    7.067023   -1.376035
     45          1           0       24.109777    0.734154    4.232559
     46          1           0       24.964542   -4.965780    1.652238
     47          1           0       24.471817   -2.493787   -4.131915
     48          1           0       24.523329    4.298696    0.877692
     49          1           0       23.208119    2.983373    3.256623
     50          1           0       25.664527    4.252261    3.188315
     51          1           0       25.990346    2.505422    3.351894
     52          1           0       24.937906    3.130636    4.447271
     53          1           0       21.604935    3.568543    1.126189
     54          1           0       22.331072    4.656604    0.004337
     55          1           0       23.144162    5.878055    2.327464
     56          1           0       21.544512    5.193188    2.805641
     57          1           0       24.351011   -0.425756    5.966130
     58          1           0       25.286780   -1.698035    6.403656
     59          1           0       23.555085   -1.943289    6.325472
     60          1           0       25.408833   -4.061482    6.524768
     61          1           0       24.916661   -5.630137    6.345165
     62          1           0       23.626557   -4.424194    6.214913
     63          1           0       24.391060   -5.892398   -0.681468
     64          1           0       25.144886   -4.719329   -3.173512
     65          1           0       27.105036   -5.147190   -0.361601
     66          1           0       26.988354   -5.294674   -2.075572
     67          1           0       26.586904   -6.631394   -1.008459
     68          1           0       23.056405   -5.943707   -2.816153
     69          1           0       22.432500   -4.454335   -3.504079
     70          1           0       22.431149   -4.402551   -0.575264
     71          1           0       21.169429   -5.442631   -1.339823
     72          1           0       21.301622   -3.839216   -1.887056
     73          1           0       23.888608   -0.583227   -5.955846
     74          1           0       25.584618   -0.329207   -5.595911
     75          1           0       24.586267    1.052988   -6.043977
     76          1           0       23.117284    4.096001   -2.167312
     77          1           0       24.259730    7.820786   -1.628780
     78          1           0       25.778189    7.178207   -2.137367
     79          1           0       25.406598    7.278949   -0.383989
     80         12           0      -24.805727   -0.540002   -0.049692
     81          6           0      -22.538981    2.118158   -0.351039
     82          6           0      -26.500682    1.304384    2.312421
     83          6           0      -26.907893   -3.067738    0.238638
     84          6           0      -22.859138   -2.333238   -2.360058
     85          7           0      -24.548801    1.502835    0.767764
     86          6           0      -23.544073    2.443308    0.539627
     87          6           0      -23.889908    3.876221    1.106038
     88          6           0      -25.032028    3.491256    2.026403
     89          6           0      -25.410339    1.990466    1.686912
     90          6           0      -24.562533    3.520695    3.552825
     91          6           0      -24.434417    4.671170   -0.162656
     92          6           0      -23.969684    6.185172   -0.323656
     93          1           0      -23.801104    6.811513    1.036984
     94          7           0      -26.339440   -0.876180    1.191541
     95          6           0      -26.885802   -0.047527    2.076937
     96          6           0      -28.038021   -0.612964    2.727590
     97          6           0      -28.300902   -1.808013    2.029068
     98          6           0      -27.108667   -2.004475    1.121142
     99          6           0      -28.812067    0.007162    3.832579
    100          6           0      -29.519615   -2.707566    2.043583
    101          8           0      -29.717994   -3.583080    1.193569
    102          6           0      -30.514447   -2.626428    3.204754
    103          7           0      -24.825567   -2.472933   -0.924640
    104          6           0      -25.901603   -3.282415   -0.646540
    105          6           0      -25.833268   -4.505882   -1.558038
    106          6           0      -24.570683   -4.227483   -2.510761
    107          6           0      -24.062386   -2.916271   -1.971597
    108          6           0      -25.819626   -5.814927   -0.692105
    109          6           0      -24.824286   -4.236220   -4.010100
    110          6           0      -23.862620   -5.174192   -4.804822
    111          7           0      -23.051025   -0.196753   -1.114150
    112          6           0      -22.348226   -1.046455   -2.025037
    113          6           0      -21.168770   -0.406499   -2.487449
    114          6           0      -21.222874    0.841991   -1.845130
    115          6           0      -22.350784    0.877793   -0.999211
    116          6           0      -20.124851   -0.863773   -3.454699
    117          6           0      -20.569711    2.103033   -1.696416
    118          8           0      -19.544673    2.555520   -2.149513
    119          6           0      -21.472905    3.001338   -0.804753
    120          6           0      -20.633776    3.639432    0.241983
    121          8           0      -20.110005    3.102086    1.213764
    122          8           0      -20.595036    4.945903   -0.037348
    123          6           0      -19.895810    5.797128    0.902256
    124          1           0      -27.203416    1.824914    2.966185
    125          1           0      -27.632249   -3.872170    0.389049
    126          1           0      -22.259222   -2.828631   -3.126395
    127          1           0      -22.935784    4.281693    1.441280
    128          1           0      -25.894160    4.132139    1.844798
    129          1           0      -23.509739    3.782984    3.659217
    130          1           0      -24.726840    2.531482    3.979664
    131          1           0      -25.221850    4.254675    4.016289
    132          1           0      -25.521909    4.725903   -0.202546
    133          1           0      -24.140797    4.085229   -1.034004
    134          1           0      -24.779112    6.793183   -0.727866
    135          1           0      -23.194331    6.287293   -1.083373
    136          1           0      -29.787143    0.267894    3.418814
    137          1           0      -28.343642    0.926991    4.179935
    138          1           0      -28.951535   -0.653890    4.687434
    139          1           0      -30.999657   -3.595935    3.094305
    140          1           0      -31.201526   -1.781772    3.141718
    141          1           0      -30.107390   -2.658573    4.215206
    142          1           0      -26.692053   -4.655757   -2.212289
    143          1           0      -23.810749   -4.979660   -2.298631
    144          1           0      -26.535181   -6.486946   -1.166023
    145          1           0      -26.036597   -5.650521    0.363402
    146          1           0      -24.911297   -6.393396   -0.864751
    147          1           0      -24.790862   -3.251950   -4.476159
    148          1           0      -25.786298   -4.741066   -4.108915
    149          1           0      -23.242941   -5.757609   -4.123655
    150          1           0      -23.102094   -4.608469   -5.342639
    151          1           0      -24.417109   -5.854486   -5.451558
    152          1           0      -20.654270   -0.757173   -4.401915
    153          1           0      -19.840765   -1.871034   -3.150826
    154          1           0      -19.267700   -0.192931   -3.491937
    155          1           0      -21.761922    3.807059   -1.480892
    156          1           0      -18.883575    5.423991    1.060471
    157          1           0      -20.297753    5.845606    1.914843
    158          1           0      -19.862908    6.786526    0.445708
 ---------------------------------------------------------------------

 SCF Done:  E(RPBE1PBE) =  -4067.41187730     A.U. after   17 cycles

 Excitation energies and oscillator strengths:

 Excited State   1:      Singlet-A      1.8171 eV  682.33 nm  f=0.0000  <S**2>=0.000
     312 -> 313        0.70711
 This state for optimization and/or second-order correction.
 Total Energy, E(TD-HF/TD-DFT) =  -4067.34510090
 Copying the excited state density for this state as the 1-particle RhoCI density.

 Excited State   2:      Singlet-A      1.8526 eV  669.23 nm  f=0.3676  <S**2>=0.000
     310 -> 316        0.15633
     311 -> 313        0.69614
     311 <- 313       -0.11162

 Excited State   3:      Singlet-A      1.8615 eV  666.05 nm  f=0.3743  <S**2>=0.000
     309 -> 315        0.15501
     312 -> 314        0.69377
     312 <- 314       -0.10799

 Excited State   4:      Singlet-A      2.1674 eV  572.05 nm  f=0.0000  <S**2>=0.000
     311 -> 314        0.70711

 Excited State   5:      Singlet-A      2.2777 eV  544.34 nm  f=0.1197  <S**2>=0.000
     309 -> 314        0.64780
     312 -> 315       -0.25231
     312 -> 318        0.10945

 The electronic state is 1-A.
 Alpha  occ. eigenvalues --  -46.92758 -46.91174 -19.27335 -19.25986 -19.19914
 Alpha  occ. eigenvalues --  -19.19408 -19.19140 -19.19099 -19.18906 -19.17903
 Alpha  occ. eigenvalues --  -14.42335 -14.41783 -14.41374 -14.41143 -14.39715
 Alpha  occ. eigenvalues --  -14.39234 -14.38269 -14.37867 -10.36314 -10.35426
 Alpha  occ. eigenvalues --  -10.33146 -10.32657 -10.32202 -10.30527 -10.29594
 Alpha  occ. eigenvalues --  -10.29448 -10.29270 -10.28862 -10.28691 -10.28651
 Alpha  occ. eigenvalues --  -10.28449 -10.28402 -10.28229 -10.28170 -10.28093
 Alpha  occ. eigenvalues --  -10.28025 -10.27972 -10.27956 -10.27056 -10.27033
 Alpha  occ. eigenvalues --  -10.26760 -10.26568 -10.26369 -10.26345 -10.26299
 Alpha  occ. eigenvalues --  -10.26219 -10.26140 -10.26092 -10.26086 -10.25986
 Alpha  occ. eigenvalues --  -10.25820 -10.25665 -10.25609 -10.25554 -10.25409
 Alpha  occ. eigenvalues --  -10.25401 -10.25375 -10.25215 -10.25140 -10.25072
 Alpha  occ. eigenvalues --  -10.25036 -10.24995 -10.24981 -10.24838 -10.24680
 Alpha  occ. eigenvalues --  -10.24515 -10.24438 -10.24420 -10.24213 -10.24206
 Alpha  occ. eigenvalues --  -10.23945 -10.23923 -10.23875 -10.23735 -10.23734
 Alpha  occ. eigenvalues --  -10.23472 -10.23431 -10.23420 -10.23203 -10.23193
 Alpha  occ. eigenvalues --  -10.23134 -10.22949 -10.22854 -10.22527 -10.22284
 Alpha  occ. eigenvalues --  -10.21647  -3.14731  -3.13460  -1.87580  -1.87074
 Alpha  occ. eigenvalues --   -1.86967  -1.86313  -1.85815  -1.85715  -1.12958
 Alpha  occ. eigenvalues --   -1.11989  -1.04854  -1.04365  -1.03737  -1.02837
 Alpha  occ. eigenvalues --   -1.01996  -1.00782  -0.99890  -0.99462  -0.98932
 Alpha  occ. eigenvalues --   -0.98756  -0.98093  -0.97527  -0.97211  -0.97019
 Alpha  occ. eigenvalues --   -0.87177  -0.86289  -0.83849  -0.83826  -0.83555
 Alpha  occ. eigenvalues --   -0.82703  -0.82692  -0.82590  -0.82246  -0.82139
 Alpha  occ. eigenvalues --   -0.81556  -0.81439  -0.80954  -0.80215  -0.79098
 Alpha  occ. eigenvalues --   -0.78297  -0.78080  -0.77858  -0.77162  -0.76567
 Alpha  occ. eigenvalues --   -0.76045  -0.75995  -0.75636  -0.75557  -0.74846
 Alpha  occ. eigenvalues --   -0.74691  -0.73051  -0.72929  -0.71942  -0.71836
 Alpha  occ. eigenvalues --   -0.71668  -0.71135  -0.70505  -0.69956  -0.69574
 Alpha  occ. eigenvalues --   -0.69322  -0.67618  -0.67267  -0.66141  -0.65830
 Alpha  occ. eigenvalues --   -0.64171  -0.63569  -0.63483  -0.63258  -0.62631
 Alpha  occ. eigenvalues --   -0.62246  -0.62077  -0.61801  -0.59868  -0.59820
 Alpha  occ. eigenvalues --   -0.59794  -0.59732  -0.59575  -0.59279  -0.59107
 Alpha  occ. eigenvalues --   -0.59057  -0.57353  -0.57116  -0.55400  -0.55219
 Alpha  occ. eigenvalues --   -0.54272  -0.54203  -0.53867  -0.53724  -0.53233
 Alpha  occ. eigenvalues --   -0.53152  -0.52368  -0.52138  -0.51905  -0.51874
 Alpha  occ. eigenvalues --   -0.51183  -0.50782  -0.50540  -0.50319  -0.50230
 Alpha  occ. eigenvalues --   -0.50009  -0.49927  -0.49880  -0.49047  -0.48924
 Alpha  occ. eigenvalues --   -0.48463  -0.48055  -0.48026  -0.47505  -0.47456
 Alpha  occ. eigenvalues --   -0.47289  -0.47227  -0.47095  -0.47060  -0.46750
 Alpha  occ. eigenvalues --   -0.46423  -0.46302  -0.46146  -0.45981  -0.45601
 Alpha  occ. eigenvalues --   -0.45526  -0.45279  -0.45220  -0.45136  -0.44894
 Alpha  occ. eigenvalues --   -0.44848  -0.44684  -0.44580  -0.44263  -0.44099
 Alpha  occ. eigenvalues --   -0.43837  -0.43688  -0.43510  -0.43312  -0.43248
 Alpha  occ. eigenvalues --   -0.43068  -0.43044  -0.42910  -0.42878  -0.42708
 Alpha  occ. eigenvalues --   -0.42599  -0.42366  -0.42203  -0.42000  -0.41906
 Alpha  occ. eigenvalues --   -0.41645  -0.41545  -0.41502  -0.41352  -0.41174
 Alpha  occ. eigenvalues --   -0.41067  -0.41015  -0.40813  -0.40733  -0.40648
 Alpha  occ. eigenvalues --   -0.40194  -0.40075  -0.39995  -0.39911  -0.39577
 Alpha  occ. eigenvalues --   -0.39539  -0.39315  -0.39304  -0.39197  -0.39082
 Alpha  occ. eigenvalues --   -0.39041  -0.38639  -0.38563  -0.38525  -0.38211
 Alpha  occ. eigenvalues --   -0.38166  -0.38029  -0.37915  -0.37573  -0.37561
 Alpha  occ. eigenvalues --   -0.37466  -0.37446  -0.37278  -0.37273  -0.37026
 Alpha  occ. eigenvalues --   -0.36800  -0.36510  -0.36460  -0.36245  -0.36147
 Alpha  occ. eigenvalues --   -0.36004  -0.35680  -0.35674  -0.35388  -0.35324
 Alpha  occ. eigenvalues --   -0.35020  -0.34672  -0.34523  -0.34186  -0.33731
 Alpha  occ. eigenvalues --   -0.33625  -0.33304  -0.32830  -0.32665  -0.32428
 Alpha  occ. eigenvalues --   -0.32328  -0.31980  -0.31966  -0.31622  -0.31510
 Alpha  occ. eigenvalues --   -0.31357  -0.31342  -0.29488  -0.29280  -0.29199
 Alpha  occ. eigenvalues --   -0.29038  -0.28239  -0.28180  -0.27364  -0.27213
 Alpha  occ. eigenvalues --   -0.26478  -0.26400  -0.26348  -0.25601  -0.25316
 Alpha  occ. eigenvalues --   -0.25242  -0.24629  -0.24406  -0.21030  -0.20985
 Alpha  occ. eigenvalues --   -0.19309  -0.18695
 Alpha virt. eigenvalues --   -0.11748  -0.11077  -0.05335  -0.04899  -0.04103
 Alpha virt. eigenvalues --   -0.03552  -0.02045  -0.01635  -0.01025  -0.00251
 Alpha virt. eigenvalues --    0.00534   0.00543   0.01427   0.01658   0.01743

 Mulliken charges:
               1
     1  Mg  12.000000
     2  C    6.000000
     3  C    6.000000
     4  C    6.000000
     5  C    6.000000
     6  N    7.000000
     7  C    6.000000
     8  C    6.000000
     9  C    6.000000
    10  C    6.000000
    11  C    6.000000
    12  C    6.000000
    13  C    6.000000
    14  H    1.000000
    15  N    7.000000
    16  C    6.000000
    17  C    6.000000
    18  C    6.000000
    19  C    6.000000
    20  C    6.000000
    21  C    6.000000
    22  O    8.000000
    23  C    6.000000
    24  N    7.000000
    25  C    6.000000
    26  C    6.000000
    27  C    6.000000
    28  C    6.000000
    29  C    6.000000
    30  C    6.000000
    31  C    6.000000
    32  N    7.000000
    33  C    6.000000
    34  C    6.000000
    35  C    6.000000
    36  C    6.000000
    37  C    6.000000
    38  C    6.000000
    39  O    8.000000
    40  C    6.000000
    41  C    6.000000
    42  O    8.000000
    43  O    8.000000
    44  C    6.000000
    45  H    1.000000
    46  H    1.000000
    47  H    1.000000
    48  H    1.000000
    49  H    1.000000
    50  H    1.000000
    51  H    1.000000
    52  H    1.000000
    53  H    1.000000
    54  H    1.000000
    55  H    1.000000
    56  H    1.000000
    57  H    1.000000
    58  H    1.000000
    59  H    1.000000
    60  H    1.000000
    61  H    1.000000
    62  H    1.000000
    63  H    1.000000
    64  H    1.000000
    65  H    1.000000
    66  H    1.000000
    67  H    1.000000
    68  H    1.000000
    69  H    1.000000
    70  H    1.000000
    71  H    1.000000
    72  H    1.000000
    73  H    1.000000
    74  H    1.000000
    75  H    1.000000
    76  H    1.000000
    77  H    1.000000
    78  H    1.000000
    79  H    1.000000
    80  Mg  12.000000
    81  C    6.000000
    82  C    6.000000
    83  C    6.000000
    84  C    6.000000
    85  N    7.000000
    86  C    6.000000
    87  C    6.000000
    88  C    6.000000
    89  C    6.000000
    90  C    6.000000
    91  C    6.000000
    92  C    6.000000
    93  H    1.000000
    94  N    7.000000
    95  C    6.000000
    96  C    6.000000
    97  C    6.000000
    98  C    6.000000
    99  C    6.000000
   100  C    6.000000
   101  O    8.000000
   102  C    6.000000
   103  N    7.000000
   104  C    6.000000
   105  C    6.000000
   106  C    6.000000
   107  C    6.000000
   108  C    6.000000
   109  C    6.000000
   110  C    6.000000
   111  N    7.000000
   112  C    6.000000
   113  C    6.000000
   114  C    6.000000
   115  C    6.000000
   116  C    6.000000
   117  C    6.000000
   118  O    8.000000
   119  C    6.000000
   120  C    6.000000
   121  O    8.000000
   122  O    8.000000
   123  C    6.000000
   124  H    1.000000
   125  H    1.000000
   126  H    1.000000
   127  H    1.000000
   128  H    1.000000
   129  H    1.000000
   130  H    1.000000
   131  H    1.000000
   132  H    1.000000
   133  H    1.000000
   134  H    1.000000
   135  H    1.000000
   136  H    1.000000
   137  H    1.000000
   138  H    1.000000
   139  H    1.000000
   140  H    1.000000
   141  H    1.000000
   142  H    1.000000
   143  H    1.000000
   144  H    1.000000
   145  H    1.000000
   146  H    1.000000
   147  H    1.000000
   148  H    1.000000
   149  H    1.000000
   150  H    1.000000
   151  H    1.000000
   152  H    1.000000
   153  H    1.000000
   154  H    1.000000
   155  H    1.000000
   156  H    1.000000
   157  H    1.000000
   158  H    1.000000
 Sum of Mulliken charges = 624.00000

 Dipole moment (field-independent basis, Debye):
    X=              0.0000    Y=             -0.0000    Z=              0.0000  Tot=              0.0000
 Quadrupole moment (field-independent basis, Debye-Ang):
   XX=             -0.0000   YY=              0.0000   ZZ=              0.0000
   XY=             -0.0000   XZ=              0.0000   YZ=             -0.0000

 Normal termination of Gaussian 16 at Thu Oct 14 09:43:45 2021.
